 Entering Gaussian System, Link 0=g16
 Initial command:
 /data0/home/software/g16/l1.exe "/data0/home/software/g16/scratch/Gau-276229.inp" -scrdir="/data0/home/software/g16/scratch/"
 Default is to use a total of  22 processors:
                               22 via shared-memory
                                1 via Linda
 Entering Link 1 = /data0/home/software/g16/l1.exe PID=    276230.
  
 Copyright (c) 1988,1990,1992,1993,1995,1998,2003,2009,2016,
            Gaussian, Inc.  All Rights Reserved.
  
 This is part of the Gaussian(R) 16 program.  It is based on
 the Gaussian(R) 09 system (copyright 2009, Gaussian, Inc.),
 the Gaussian(R) 03 system (copyright 2003, Gaussian, Inc.),
 the Gaussian(R) 98 system (copyright 1998, Gaussian, Inc.),
 the Gaussian(R) 94 system (copyright 1995, Gaussian, Inc.),
 the Gaussian 92(TM) system (copyright 1992, Gaussian, Inc.),
 the Gaussian 90(TM) system (copyright 1990, Gaussian, Inc.),
 the Gaussian 88(TM) system (copyright 1988, Gaussian, Inc.),
 the Gaussian 86(TM) system (copyright 1986, Carnegie Mellon
 University), and the Gaussian 82(TM) system (copyright 1983,
 Carnegie Mellon University). Gaussian is a federally registered
 trademark of Gaussian, Inc.
  
 This software contains proprietary and confidential information,
 including trade secrets, belonging to Gaussian, Inc.
  
 This software is provided under written license and may be
 used, copied, transmitted, or stored only in accord with that
 written license.
  
 The following legend is applicable only to US Government
 contracts under FAR:
  
                    RESTRICTED RIGHTS LEGEND
  
 Use, reproduction and disclosure by the US Government is
 subject to restrictions as set forth in subparagraphs (a)
 and (c) of the Commercial Computer Software - Restricted
 Rights clause in FAR 52.227-19.
  
 Gaussian, Inc.
 340 Quinnipiac St., Bldg. 40, Wallingford CT 06492
  
  
 ---------------------------------------------------------------
 Warning -- This program may not be used in any manner that
 competes with the business of Gaussian, Inc. or will provide
 assistance to any competitor of Gaussian, Inc.  The licensee
 of this program is prohibited from giving any competitor of
 Gaussian, Inc. access to this program.  By using this program,
 the user acknowledges that Gaussian, Inc. is engaged in the
 business of creating and licensing software in the field of
 computational chemistry and represents and warrants to the
 licensee that it is not a competitor of Gaussian, Inc. and that
 it will not use this program in any manner prohibited above.
 ---------------------------------------------------------------
  

 Cite this work as:
 Gaussian 16, Revision A.03,
 M. J. Frisch, G. W. Trucks, H. B. Schlegel, G. E. Scuseria, 
 M. A. Robb, J. R. Cheeseman, G. Scalmani, V. Barone, 
 G. A. Petersson, H. Nakatsuji, X. Li, M. Caricato, A. V. Marenich, 
 J. Bloino, B. G. Janesko, R. Gomperts, B. Mennucci, H. P. Hratchian, 
 J. V. Ortiz, A. F. Izmaylov, J. L. Sonnenberg, D. Williams-Young, 
 F. Ding, F. Lipparini, F. Egidi, J. Goings, B. Peng, A. Petrone, 
 T. Henderson, D. Ranasinghe, V. G. Zakrzewski, J. Gao, N. Rega, 
 G. Zheng, W. Liang, M. Hada, M. Ehara, K. Toyota, R. Fukuda, 
 J. Hasegawa, M. Ishida, T. Nakajima, Y. Honda, O. Kitao, H. Nakai, 
 T. Vreven, K. Throssell, J. A. Montgomery, Jr., J. E. Peralta, 
 F. Ogliaro, M. J. Bearpark, J. J. Heyd, E. N. Brothers, K. N. Kudin, 
 V. N. Staroverov, T. A. Keith, R. Kobayashi, J. Normand, 
 K. Raghavachari, A. P. Rendell, J. C. Burant, S. S. Iyengar, 
 J. Tomasi, M. Cossi, J. M. Millam, M. Klene, C. Adamo, R. Cammi, 
 J. W. Ochterski, R. L. Martin, K. Morokuma, O. Farkas, 
 J. B. Foresman, and D. J. Fox, Gaussian, Inc., Wallingford CT, 2016.
 
 ******************************************
 Gaussian 16:  ES64L-G16RevA.03 25-Dec-2016
                19-Feb-2023 
 ******************************************
 %nproc=24
 Will use up to   24 processors via shared memory.
 %mem=50GB
 ---------------------------------------------------
 #p M062X/6-311+G(2d,p) nosymm em=GD3 counterpoise=3
 ---------------------------------------------------
 1/38=1,62=3,172=1/1;
 2/12=2,15=1,17=6,18=5,40=1/2;
 1/38=1,53=2,62=3,63=1/22;
 3/5=4,6=6,7=112,11=2,25=1,30=1,74=-55,124=31/1,2,3;
 4//1;
 5/5=2,38=5/2;
 6/7=2,8=2,9=2,10=2,28=1/1;
 1/53=2,62=3,63=1/22;
 3/5=7,6=11,7=112,11=2,25=1,30=1,74=-55,82=7,124=31/1,2,3;
 4//1;
 5/5=2,38=5/2;
 6/7=2,8=2,9=2,10=2,28=1/1;
 1/53=2,62=3,63=1/22(-4);
 99/5=1,9=1/99;
 Leave Link    1 at Sun Feb 19 11:54:41 2023, MaxMem=  6710886400 cpu:               0.7 elap:               0.0
 (Enter /data0/home/software/g16/l101.exe)
 -------------------
 Title Card Required
 -------------------
 Symbolic Z-matrix:
 Charge =  0 Multiplicity = 1 in supermolecule
 Charge =  0 Multiplicity = 1 in fragment      1.
 Charge =  0 Multiplicity = 1 in fragment      2.
 Charge =  0 Multiplicity = 1 in fragment      3.
 C                     4.76389   14.63219   4.47147    
 C                     3.40291   14.36041   4.66805    
 C                     3.00161   13.03654   4.8265     
 C                     3.95884   12.02317   4.78616    
 C                     5.29782   12.37621   4.58632    
 N                     5.68945   13.65572   4.43089    
 H                     1.95062   12.7933   4.98085    
 H                     5.13602   15.66097   4.34272    
 H                     2.68097   15.17154   4.69617    
 H                     3.67468   10.98233   4.90713    
 H                     6.09485   11.62477   4.5465     
 O                     9.64811   16.75065   1.10574    
 H                     8.99144   17.46704   1.20731    
 H                     9.15298   16.02305   0.73098    
 O                     7.6833    18.5973   1.7891     
 H                     7.44113   18.04443   2.55279    
 H                     8.10762   19.36038   2.18212    
 
 ITRead=  0  0  0  0  0  0  0  0  0  0  0  0  0  0  0  0  0
 MicOpt= -1 -1 -1 -1 -1 -1 -1 -1 -1 -1 -1 -1 -1 -1 -1 -1 -1
 NAtoms=     17 NQM=       17 NQMF=       0 NMMI=      0 NMMIF=      0
                NMic=       0 NMicF=      0.
                    Isotopes and Nuclear Properties:
 (Nuclear quadrupole moments (NQMom) in fm**2, nuclear magnetic moments (NMagM)
  in nuclear magnetons)

  Atom         1           2           3           4           5           6           7           8           9          10
 IAtWgt=          12          12          12          12          12          14           1           1           1           1
 AtmWgt=  12.0000000  12.0000000  12.0000000  12.0000000  12.0000000  14.0030740   1.0078250   1.0078250   1.0078250   1.0078250
 NucSpn=           0           0           0           0           0           2           1           1           1           1
 AtZEff=  -0.0000000  -0.0000000  -0.0000000  -0.0000000  -0.0000000  -0.0000000  -0.0000000  -0.0000000  -0.0000000  -0.0000000
 NQMom=    0.0000000   0.0000000   0.0000000   0.0000000   0.0000000   2.0440000   0.0000000   0.0000000   0.0000000   0.0000000
 NMagM=    0.0000000   0.0000000   0.0000000   0.0000000   0.0000000   0.4037610   2.7928460   2.7928460   2.7928460   2.7928460
 AtZNuc=   6.0000000   6.0000000   6.0000000   6.0000000   6.0000000   7.0000000   1.0000000   1.0000000   1.0000000   1.0000000

  Atom        11          12          13          14          15          16          17
 IAtWgt=           1          16           1           1          16           1           1
 AtmWgt=   1.0078250  15.9949146   1.0078250   1.0078250  15.9949146   1.0078250   1.0078250
 NucSpn=           1           0           1           1           0           1           1
 AtZEff=  -0.0000000  -0.0000000  -0.0000000  -0.0000000  -0.0000000  -0.0000000  -0.0000000
 NQMom=    0.0000000   0.0000000   0.0000000   0.0000000   0.0000000   0.0000000   0.0000000
 NMagM=    2.7928460   0.0000000   2.7928460   2.7928460   0.0000000   2.7928460   2.7928460
 AtZNuc=   1.0000000   8.0000000   1.0000000   1.0000000   8.0000000   1.0000000   1.0000000
 Leave Link  101 at Sun Feb 19 11:54:41 2023, MaxMem=  6710886400 cpu:               2.0 elap:               0.1
 (Enter /data0/home/software/g16/l202.exe)
                          Input orientation:                          
 ---------------------------------------------------------------------
 Center     Atomic      Atomic             Coordinates (Angstroms)
 Number     Number       Type             X           Y           Z
 ---------------------------------------------------------------------
      1          6           0        4.763894   14.632191    4.471475
      2          6           0        3.402913   14.360412    4.668052
      3          6           0        3.001612   13.036541    4.826502
      4          6           0        3.958842   12.023173    4.786155
      5          6           0        5.297817   12.376205    4.586320
      6          7           0        5.689445   13.655717    4.430887
      7          1           0        1.950618   12.793298    4.980852
      8          1           0        5.136020   15.660966    4.342716
      9          1           0        2.680972   15.171535    4.696166
     10          1           0        3.674680   10.982333    4.907132
     11          1           0        6.094849   11.624774    4.546504
     12          8           0        9.648108   16.750654    1.105737
     13          1           0        8.991440   17.467037    1.207307
     14          1           0        9.152977   16.023055    0.730977
     15          8           0        7.683302   18.597301    1.789101
     16          1           0        7.441129   18.044428    2.552790
     17          1           0        8.107622   19.360382    2.182124
 ---------------------------------------------------------------------
                    Distance matrix (angstroms):
                    1          2          3          4          5
     1  C    0.000000
     2  C    1.401705   0.000000
     3  C    2.403702   1.392402   0.000000
     4  C    2.748474   2.405346   1.394572   0.000000
     5  C    2.321150   2.744890   2.401310   1.399078   0.000000
     6  N    1.346029   2.404386   2.786456   2.405494   1.347102
     7  H    3.399340   2.159364   1.089761   2.159621   3.396081
     8  H    1.101560   2.191106   3.417214   3.849146   3.297753
     9  H    2.163317   1.086236   2.162868   3.399005   3.830641
    10  H    3.833751   3.397416   2.163167   1.085694   2.163417
    11  H    3.289624   3.839923   3.411686   2.186019   1.096127
    12  O    6.298541   7.576662   8.474352   8.262100   7.083452
    13  H    6.046759   7.270455   8.282868   8.232305   7.139828
    14  H    5.932106   7.164369   7.970689   7.708603   6.559378
    15  O    5.607154   6.675426   7.878203   8.128536   7.226134
    16  H    4.742605   5.861186   7.068098   7.305461   6.392009
    17  H    6.227153   7.301632   8.547224   8.822017   7.902777
                    6          7          8          9         10
     6  N    0.000000
     7  H    3.876217   0.000000
     8  H    2.082085   4.333304   0.000000
     9  H    3.379199   2.504092   2.528187   0.000000
    10  H    3.381282   2.501483   4.933932   4.310612   0.000000
    11  H    2.074235   4.327673   4.153520   4.925086   2.529822
    12  O    6.025468   9.483066   5.659010   7.995360   9.132687
    13  H    5.985048   9.255088   5.287433   7.567263   9.165589
    14  H    5.593718   8.964750   5.414029   7.637713   8.535859
    15  O    5.947584   8.759988   4.650985   6.723853   9.153082
    16  H    5.084922   7.975936   3.768057   5.958747   8.342796
    17  H    6.591488   9.426992   5.213852   7.301738   9.862472
                   11         12         13         14         15
    11  H    0.000000
    12  O    7.123143   0.000000
    13  H    7.326153   0.977105   0.000000
    14  H    6.576874   0.956556   1.529074   0.000000
    15  O    7.664371   2.781646   1.824063   3.147430   0.000000
    16  H    6.855605   2.939144   2.132409   3.214868   0.973415
    17  H    8.335537   3.215958   2.305679   3.786337   0.957500
                   16         17
    16  H    0.000000
    17  H    1.520967   0.000000
 Symmetry turned off by external request.
 Stoichiometry    C5H9NO2
 Framework group  C1[X(C5H9NO2)]
 Deg. of freedom    45
 Full point group                 C1      NOp   1
 Rotational constants (GHZ):           3.0891358           0.4025354           0.3619051
 Leave Link  202 at Sun Feb 19 11:54:41 2023, MaxMem=  6710886400 cpu:               0.1 elap:               0.0
 (Enter /data0/home/software/g16/l122.exe)
 Counterpoise: doing full-system calculation.
 Leave Link  122 at Sun Feb 19 11:54:41 2023, MaxMem=  6710886400 cpu:               0.0 elap:               0.0
 (Enter /data0/home/software/g16/l301.exe)
 Standard basis: 6-311+G(2d,p) (5D, 7F)
 Ernie: Thresh=  0.10000D-02 Tol=  0.10000D-05 Strict=F.
   270 basis functions,   408 primitive gaussians,   286 cartesian basis functions
    31 alpha electrons       31 beta electrons
       nuclear repulsion energy       306.9905583458 Hartrees.
 IExCor= 4336 DFT=T Ex+Corr=M062X ExCW=0 ScaHFX=  0.540000
 ScaDFX=  1.000000  1.000000  1.000000  1.000000 ScalE2=  1.000000  1.000000
 IRadAn=      5 IRanWt=     -1 IRanGd=            0 ICorTp=0 IEmpDi=131
 NAtoms=   17 NActive=   17 NUniq=   17 SFac= 1.00D+00 NAtFMM=   60 NAOKFM=F Big=F
 Integral buffers will be    131072 words long.
 Raffenetti 2 integral format.
 Two-electron integral symmetry is turned off.
 R6Disp:  Grimme-D3 Dispersion energy=       -0.0002705039 Hartrees.
 Nuclear repulsion after empirical dispersion term =      306.9902878419 Hartrees.
 Leave Link  301 at Sun Feb 19 11:54:41 2023, MaxMem=  6710886400 cpu:               1.1 elap:               0.1
 (Enter /data0/home/software/g16/l302.exe)
 NPDir=0 NMtPBC=     1 NCelOv=     1 NCel=       1 NClECP=     1 NCelD=      1
         NCelK=      1 NCelE2=     1 NClLst=     1 CellRange=     0.0.
 One-electron integrals computed using PRISM.
 NBasis=   270 RedAO= T EigKep=  1.82D-05  NBF=   270
 NBsUse=   270 1.00D-06 EigRej= -1.00D+00 NBFU=   270
 Precomputing XC quadrature grid using
 IXCGrd= 4 IRadAn=           5 IRanWt=          -1 IRanGd=           0 AccXCQ= 0.00D+00.
 Generated NRdTot=       0 NPtTot=           0 NUsed=           0 NTot=          32
 NSgBfM=   284   284   284   284   284 MxSgAt=    17 MxSgA2=    17.
 Leave Link  302 at Sun Feb 19 11:54:42 2023, MaxMem=  6710886400 cpu:               4.1 elap:               0.2
 (Enter /data0/home/software/g16/l303.exe)
 DipDrv:  MaxL=1.
 Leave Link  303 at Sun Feb 19 11:54:42 2023, MaxMem=  6710886400 cpu:               0.6 elap:               0.0
 (Enter /data0/home/software/g16/l401.exe)
 ExpMin= 4.38D-02 ExpMax= 8.59D+03 ExpMxC= 1.30D+03 IAcc=3 IRadAn=         5 AccDes= 0.00D+00
 Harris functional with IExCor= 1009 and IRadAn=       5 diagonalized for initial guess.
 HarFok:  IExCor= 1009 AccDes= 0.00D+00 IRadAn=         5 IDoV= 1 UseB2=F ITyADJ=14
 ICtDFT=  3500011 ScaDFX=  1.000000  1.000000  1.000000  1.000000
 FoFCou: FMM=F IPFlag=           0 FMFlag=      100000 FMFlg1=           0
         NFxFlg=           0 DoJE=T BraDBF=F KetDBF=T FulRan=T
         wScrn=  0.000000 ICntrl=       500 IOpCl=  0 I1Cent=   200000004 NGrid=           0
         NMat0=    1 NMatS0=      1 NMatT0=    0 NMatD0=    1 NMtDS0=    0 NMtDT0=    0
 Symmetry not used in FoFCou.
 Harris En= -400.954541333234    
 JPrj=0 DoOrth=F DoCkMO=F.
 Leave Link  401 at Sun Feb 19 11:54:42 2023, MaxMem=  6710886400 cpu:              11.3 elap:               0.5
 (Enter /data0/home/software/g16/l502.exe)
 Two-electron integral symmetry not used.
 Closed shell SCF:
 Using DIIS extrapolation, IDIIS=  1040.
 NGot=  6710886400 LenX=  6710713849 LenY=  6710631612
 Requested convergence on RMS density matrix=1.00D-08 within 128 cycles.
 Requested convergence on MAX density matrix=1.00D-06.
 Requested convergence on             energy=1.00D-06.
 No special actions if energy rises.
 Fock matrices will be formed incrementally for  20 cycles.

 Cycle   1  Pass 1  IDiag  1:
 FoFJK:  IHMeth= 1 ICntrl=       0 DoSepK=F KAlg= 0 I1Cent=           0 FoldK=F
 IRaf= 800000000 NMat=       1 IRICut=       1 DoRegI=T DoRafI=F ISym2E= 0 IDoP0=0 IntGTp=1.
 FoFCou: FMM=F IPFlag=           0 FMFlag=      100000 FMFlg1=           0
         NFxFlg=           0 DoJE=F BraDBF=F KetDBF=F FulRan=T
         wScrn=  0.000000 ICntrl=         0 IOpCl=  0 I1Cent=           0 NGrid=           0
         NMat0=    1 NMatS0=      1 NMatT0=    0 NMatD0=    1 NMtDS0=    0 NMtDT0=    0
 Symmetry not used in FoFCou.
 E= -400.834059141831    
 DIIS: error= 4.43D-02 at cycle   1 NSaved=   1.
 NSaved= 1 IEnMin= 1 EnMin= -400.834059141831     IErMin= 1 ErrMin= 4.43D-02
 ErrMax= 4.43D-02  0.00D+00 EMaxC= 1.00D-01 BMatC= 3.80D-01 BMatP= 3.80D-01
 IDIUse=3 WtCom= 5.57D-01 WtEn= 4.43D-01
 Coeff-Com:  0.100D+01
 Coeff-En:   0.100D+01
 Coeff:      0.100D+01
 Gap=     0.341 Goal=   None    Shift=    0.000
 GapD=    0.341 DampG=1.000 DampE=0.500 DampFc=0.5000 IDamp=-1.
 Damping current iteration by 5.00D-01
 RMSDP=5.48D-03 MaxDP=3.20D-01              OVMax= 1.82D-01

 Cycle   2  Pass 1  IDiag  1:
 RMSU=  2.73D-03    CP:  1.02D+00
 E= -400.958389531126     Delta-E=       -0.124330389296 Rises=F Damp=T
 DIIS: error= 9.60D-03 at cycle   2 NSaved=   2.
 NSaved= 2 IEnMin= 2 EnMin= -400.958389531126     IErMin= 2 ErrMin= 9.60D-03
 ErrMax= 9.60D-03  0.00D+00 EMaxC= 1.00D-01 BMatC= 2.31D-02 BMatP= 3.80D-01
 IDIUse=3 WtCom= 9.04D-01 WtEn= 9.60D-02
 Coeff-Com: -0.165D-01 0.102D+01
 Coeff-En:   0.331D-02 0.997D+00
 Coeff:     -0.146D-01 0.101D+01
 Gap=     0.378 Goal=   None    Shift=    0.000
 RMSDP=1.79D-03 MaxDP=1.13D-01 DE=-1.24D-01 OVMax= 1.16D-01

 Cycle   3  Pass 1  IDiag  1:
 RMSU=  1.48D-03    CP:  9.87D-01  6.60D-01
 E= -401.093135891953     Delta-E=       -0.134746360826 Rises=F Damp=F
 DIIS: error= 6.27D-03 at cycle   3 NSaved=   3.
 NSaved= 3 IEnMin= 3 EnMin= -401.093135891953     IErMin= 3 ErrMin= 6.27D-03
 ErrMax= 6.27D-03  0.00D+00 EMaxC= 1.00D-01 BMatC= 4.96D-03 BMatP= 2.31D-02
 IDIUse=3 WtCom= 9.37D-01 WtEn= 6.27D-02
 Coeff-Com: -0.683D-01 0.280D+00 0.788D+00
 Coeff-En:   0.000D+00 0.000D+00 0.100D+01
 Coeff:     -0.640D-01 0.262D+00 0.802D+00
 Gap=     0.326 Goal=   None    Shift=    0.000
 RMSDP=4.15D-04 MaxDP=2.46D-02 DE=-1.35D-01 OVMax= 1.40D-02

 Cycle   4  Pass 1  IDiag  1:
 RMSU=  3.77D-04    CP:  9.78D-01  6.12D-01  9.56D-01
 E= -401.096152733374     Delta-E=       -0.003016841421 Rises=F Damp=F
 DIIS: error= 1.65D-03 at cycle   4 NSaved=   4.
 NSaved= 4 IEnMin= 4 EnMin= -401.096152733374     IErMin= 4 ErrMin= 1.65D-03
 ErrMax= 1.65D-03  0.00D+00 EMaxC= 1.00D-01 BMatC= 4.96D-04 BMatP= 4.96D-03
 IDIUse=3 WtCom= 9.84D-01 WtEn= 1.65D-02
 Coeff-Com: -0.240D-01 0.618D-01 0.319D+00 0.643D+00
 Coeff-En:   0.000D+00 0.000D+00 0.000D+00 0.100D+01
 Coeff:     -0.236D-01 0.608D-01 0.314D+00 0.649D+00
 Gap=     0.317 Goal=   None    Shift=    0.000
 RMSDP=1.00D-04 MaxDP=2.60D-03 DE=-3.02D-03 OVMax= 6.05D-03

 Cycle   5  Pass 1  IDiag  1:
 RMSU=  6.13D-05    CP:  9.78D-01  6.18D-01  9.81D-01  8.20D-01
 E= -401.096566860043     Delta-E=       -0.000414126669 Rises=F Damp=F
 DIIS: error= 5.25D-04 at cycle   5 NSaved=   5.
 NSaved= 5 IEnMin= 5 EnMin= -401.096566860043     IErMin= 5 ErrMin= 5.25D-04
 ErrMax= 5.25D-04  0.00D+00 EMaxC= 1.00D-01 BMatC= 3.21D-05 BMatP= 4.96D-04
 IDIUse=3 WtCom= 9.95D-01 WtEn= 5.25D-03
 Coeff-Com: -0.632D-02 0.113D-01 0.896D-01 0.272D+00 0.633D+00
 Coeff-En:   0.000D+00 0.000D+00 0.000D+00 0.000D+00 0.100D+01
 Coeff:     -0.629D-02 0.112D-01 0.891D-01 0.271D+00 0.635D+00
 Gap=     0.317 Goal=   None    Shift=    0.000
 RMSDP=3.36D-05 MaxDP=9.59D-04 DE=-4.14D-04 OVMax= 2.16D-03

 Cycle   6  Pass 1  IDiag  1:
 RMSU=  2.19D-05    CP:  9.78D-01  6.12D-01  9.78D-01  8.43D-01  7.22D-01
 E= -401.096592282426     Delta-E=       -0.000025422383 Rises=F Damp=F
 DIIS: error= 2.38D-04 at cycle   6 NSaved=   6.
 NSaved= 6 IEnMin= 6 EnMin= -401.096592282426     IErMin= 6 ErrMin= 2.38D-04
 ErrMax= 2.38D-04  0.00D+00 EMaxC= 1.00D-01 BMatC= 3.63D-06 BMatP= 3.21D-05
 IDIUse=3 WtCom= 9.98D-01 WtEn= 2.38D-03
 Coeff-Com: -0.164D-02 0.192D-02 0.256D-01 0.942D-01 0.309D+00 0.571D+00
 Coeff-En:   0.000D+00 0.000D+00 0.000D+00 0.000D+00 0.000D+00 0.100D+01
 Coeff:     -0.164D-02 0.191D-02 0.256D-01 0.939D-01 0.308D+00 0.572D+00
 Gap=     0.318 Goal=   None    Shift=    0.000
 RMSDP=8.44D-06 MaxDP=2.53D-04 DE=-2.54D-05 OVMax= 9.40D-04

 Cycle   7  Pass 1  IDiag  1:
 RMSU=  6.97D-06    CP:  9.78D-01  6.11D-01  9.79D-01  8.34D-01  7.67D-01
                    CP:  9.76D-01
 E= -401.096595606169     Delta-E=       -0.000003323743 Rises=F Damp=F
 DIIS: error= 6.30D-05 at cycle   7 NSaved=   7.
 NSaved= 7 IEnMin= 7 EnMin= -401.096595606169     IErMin= 7 ErrMin= 6.30D-05
 ErrMax= 6.30D-05  0.00D+00 EMaxC= 1.00D-01 BMatC= 3.46D-07 BMatP= 3.63D-06
 IDIUse=1 WtCom= 1.00D+00 WtEn= 0.00D+00
 Coeff-Com:  0.884D-03-0.190D-02-0.104D-01-0.270D-01-0.343D-01 0.214D+00
 Coeff-Com:  0.859D+00
 Coeff:      0.884D-03-0.190D-02-0.104D-01-0.270D-01-0.343D-01 0.214D+00
 Coeff:      0.859D+00
 Gap=     0.318 Goal=   None    Shift=    0.000
 RMSDP=6.76D-06 MaxDP=2.83D-04 DE=-3.32D-06 OVMax= 2.28D-04

 Cycle   8  Pass 1  IDiag  1:
 RMSU=  1.78D-06    CP:  9.78D-01  6.09D-01  9.79D-01  8.38D-01  7.64D-01
                    CP:  1.12D+00  9.39D-01
 E= -401.096595958551     Delta-E=       -0.000000352382 Rises=F Damp=F
 DIIS: error= 1.47D-05 at cycle   8 NSaved=   8.
 NSaved= 8 IEnMin= 8 EnMin= -401.096595958551     IErMin= 8 ErrMin= 1.47D-05
 ErrMax= 1.47D-05  0.00D+00 EMaxC= 1.00D-01 BMatC= 2.69D-08 BMatP= 3.46D-07
 IDIUse=1 WtCom= 1.00D+00 WtEn= 0.00D+00
 Coeff-Com:  0.455D-03-0.934D-03-0.563D-02-0.156D-01-0.274D-01 0.786D-01
 Coeff-Com:  0.380D+00 0.591D+00
 Coeff:      0.455D-03-0.934D-03-0.563D-02-0.156D-01-0.274D-01 0.786D-01
 Coeff:      0.380D+00 0.591D+00
 Gap=     0.318 Goal=   None    Shift=    0.000
 RMSDP=5.53D-07 MaxDP=2.38D-05 DE=-3.52D-07 OVMax= 4.58D-05

 Cycle   9  Pass 1  IDiag  1:
 RMSU=  4.79D-07    CP:  9.78D-01  6.09D-01  9.79D-01  8.38D-01  7.66D-01
                    CP:  1.12D+00  9.58D-01  9.87D-01
 E= -401.096595979150     Delta-E=       -0.000000020600 Rises=F Damp=F
 DIIS: error= 4.48D-06 at cycle   9 NSaved=   9.
 NSaved= 9 IEnMin= 9 EnMin= -401.096595979150     IErMin= 9 ErrMin= 4.48D-06
 ErrMax= 4.48D-06  0.00D+00 EMaxC= 1.00D-01 BMatC= 2.19D-09 BMatP= 2.69D-08
 IDIUse=1 WtCom= 1.00D+00 WtEn= 0.00D+00
 Coeff-Com: -0.582D-04 0.126D-03 0.540D-03 0.116D-02-0.918D-03-0.155D-01
 Coeff-Com: -0.651D-01 0.167D+00 0.912D+00
 Coeff:     -0.582D-04 0.126D-03 0.540D-03 0.116D-02-0.918D-03-0.155D-01
 Coeff:     -0.651D-01 0.167D+00 0.912D+00
 Gap=     0.318 Goal=   None    Shift=    0.000
 RMSDP=3.62D-07 MaxDP=1.64D-05 DE=-2.06D-08 OVMax= 2.07D-05

 Cycle  10  Pass 1  IDiag  1:
 RMSU=  1.61D-07    CP:  9.78D-01  6.09D-01  9.79D-01  8.38D-01  7.65D-01
                    CP:  1.12D+00  9.58D-01  1.08D+00  1.05D+00
 E= -401.096595981593     Delta-E=       -0.000000002442 Rises=F Damp=F
 DIIS: error= 1.01D-06 at cycle  10 NSaved=  10.
 NSaved=10 IEnMin=10 EnMin= -401.096595981593     IErMin=10 ErrMin= 1.01D-06
 ErrMax= 1.01D-06  0.00D+00 EMaxC= 1.00D-01 BMatC= 8.18D-11 BMatP= 2.19D-09
 IDIUse=1 WtCom= 1.00D+00 WtEn= 0.00D+00
 Coeff-Com: -0.243D-04 0.524D-04 0.256D-03 0.648D-03 0.162D-03-0.536D-02
 Coeff-Com: -0.251D-01 0.161D-01 0.208D+00 0.805D+00
 Coeff:     -0.243D-04 0.524D-04 0.256D-03 0.648D-03 0.162D-03-0.536D-02
 Coeff:     -0.251D-01 0.161D-01 0.208D+00 0.805D+00
 Gap=     0.318 Goal=   None    Shift=    0.000
 RMSDP=5.49D-08 MaxDP=1.55D-06 DE=-2.44D-09 OVMax= 7.33D-06

 Cycle  11  Pass 1  IDiag  1:
 RMSU=  4.34D-08    CP:  9.78D-01  6.09D-01  9.80D-01  8.38D-01  7.65D-01
                    CP:  1.12D+00  9.57D-01  1.09D+00  1.09D+00  1.06D+00
 E= -401.096595981682     Delta-E=       -0.000000000089 Rises=F Damp=F
 DIIS: error= 6.73D-07 at cycle  11 NSaved=  11.
 NSaved=11 IEnMin=11 EnMin= -401.096595981682     IErMin=11 ErrMin= 6.73D-07
 ErrMax= 6.73D-07  0.00D+00 EMaxC= 1.00D-01 BMatC= 4.47D-11 BMatP= 8.18D-11
 IDIUse=1 WtCom= 1.00D+00 WtEn= 0.00D+00
 Coeff-Com: -0.257D-05 0.612D-05 0.427D-04 0.139D-03 0.114D-03-0.328D-03
 Coeff-Com: -0.318D-02-0.210D-01-0.419D-01 0.445D+00 0.621D+00
 Coeff:     -0.257D-05 0.612D-05 0.427D-04 0.139D-03 0.114D-03-0.328D-03
 Coeff:     -0.318D-02-0.210D-01-0.419D-01 0.445D+00 0.621D+00
 Gap=     0.318 Goal=   None    Shift=    0.000
 RMSDP=2.50D-08 MaxDP=1.11D-06 DE=-8.89D-11 OVMax= 2.49D-06

 Cycle  12  Pass 1  IDiag  1:
 RMSU=  1.55D-08    CP:  9.78D-01  6.09D-01  9.80D-01  8.38D-01  7.65D-01
                    CP:  1.12D+00  9.57D-01  1.10D+00  1.11D+00  1.15D+00
                    CP:  8.57D-01
 E= -401.096595981730     Delta-E=       -0.000000000049 Rises=F Damp=F
 DIIS: error= 1.01D-07 at cycle  12 NSaved=  12.
 NSaved=12 IEnMin=12 EnMin= -401.096595981730     IErMin=12 ErrMin= 1.01D-07
 ErrMax= 1.01D-07  0.00D+00 EMaxC= 1.00D-01 BMatC= 1.66D-12 BMatP= 4.47D-11
 IDIUse=1 WtCom= 1.00D+00 WtEn= 0.00D+00
 Coeff-Com:  0.158D-05-0.303D-05-0.600D-05-0.717D-05 0.332D-04 0.525D-03
 Coeff-Com:  0.121D-02-0.953D-02-0.361D-01 0.872D-01 0.164D+00 0.793D+00
 Coeff:      0.158D-05-0.303D-05-0.600D-05-0.717D-05 0.332D-04 0.525D-03
 Coeff:      0.121D-02-0.953D-02-0.361D-01 0.872D-01 0.164D+00 0.793D+00
 Gap=     0.318 Goal=   None    Shift=    0.000
 RMSDP=7.43D-09 MaxDP=3.13D-07 DE=-4.89D-11 OVMax= 6.65D-07

 SCF Done:  E(RM062X) =  -401.096595982     A.U. after   12 cycles
            NFock= 12  Conv=0.74D-08     -V/T= 2.0040
 KE= 3.994917172630D+02 PE=-1.552028444120D+03 EE= 4.444498430338D+02
 Leave Link  502 at Sun Feb 19 11:54:56 2023, MaxMem=  6710886400 cpu:             327.0 elap:              13.7
 (Enter /data0/home/software/g16/l601.exe)
 Copying SCF densities to generalized density rwf, IOpCl= 0 IROHF=0.

 **********************************************************************

            Population analysis using the SCF density.

 **********************************************************************

 Alpha  occ. eigenvalues --  -19.65466 -19.58898 -14.75526 -10.58961 -10.58740
 Alpha  occ. eigenvalues --  -10.57064 -10.56162 -10.56102  -1.16575  -1.09947
 Alpha  occ. eigenvalues --   -1.05456  -0.91117  -0.86695  -0.72267  -0.71888
 Alpha  occ. eigenvalues --   -0.63635  -0.61303  -0.58239  -0.55642  -0.55136
 Alpha  occ. eigenvalues --   -0.50841  -0.50584  -0.47823  -0.47707  -0.45375
 Alpha  occ. eigenvalues --   -0.43532  -0.41744  -0.36790  -0.35225  -0.33004
 Alpha  occ. eigenvalues --   -0.32538
 Alpha virt. eigenvalues --   -0.00786  -0.00268   0.00253   0.01189   0.02381
 Alpha virt. eigenvalues --    0.03653   0.04592   0.05488   0.06228   0.07092
 Alpha virt. eigenvalues --    0.08099   0.08575   0.08905   0.09172   0.11164
 Alpha virt. eigenvalues --    0.12769   0.13083   0.13157   0.13458   0.14440
 Alpha virt. eigenvalues --    0.14834   0.15723   0.16462   0.17317   0.18046
 Alpha virt. eigenvalues --    0.18737   0.19413   0.19855   0.20534   0.20718
 Alpha virt. eigenvalues --    0.21672   0.22066   0.22374   0.22961   0.23637
 Alpha virt. eigenvalues --    0.24425   0.25315   0.26215   0.27132   0.27988
 Alpha virt. eigenvalues --    0.29255   0.31407   0.32450   0.33269   0.34151
 Alpha virt. eigenvalues --    0.34983   0.35810   0.36450   0.46112   0.48985
 Alpha virt. eigenvalues --    0.49191   0.51035   0.51566   0.53854   0.53995
 Alpha virt. eigenvalues --    0.55035   0.55193   0.55771   0.56396   0.58986
 Alpha virt. eigenvalues --    0.59204   0.60425   0.63670   0.63906   0.64696
 Alpha virt. eigenvalues --    0.65148   0.65776   0.66044   0.67721   0.68784
 Alpha virt. eigenvalues --    0.72783   0.76194   0.77064   0.79420   0.80331
 Alpha virt. eigenvalues --    0.82372   0.82919   0.83806   0.83891   0.84886
 Alpha virt. eigenvalues --    0.85943   0.88466   0.89717   0.90960   0.94735
 Alpha virt. eigenvalues --    0.95834   0.96623   0.96745   0.98454   1.02324
 Alpha virt. eigenvalues --    1.03539   1.06081   1.08079   1.09374   1.10800
 Alpha virt. eigenvalues --    1.14911   1.16147   1.17012   1.17420   1.19887
 Alpha virt. eigenvalues --    1.21267   1.23826   1.27518   1.27611   1.31394
 Alpha virt. eigenvalues --    1.33673   1.34639   1.34948   1.35053   1.35428
 Alpha virt. eigenvalues --    1.38060   1.38509   1.38757   1.43795   1.44191
 Alpha virt. eigenvalues --    1.48090   1.49502   1.50094   1.52305   1.52791
 Alpha virt. eigenvalues --    1.56122   1.61382   1.63382   1.66323   1.67943
 Alpha virt. eigenvalues --    1.72157   1.73210   1.73980   1.77378   1.80096
 Alpha virt. eigenvalues --    1.83376   1.86252   1.89979   1.93560   1.99168
 Alpha virt. eigenvalues --    2.01613   2.02221   2.05924   2.07678   2.12139
 Alpha virt. eigenvalues --    2.16923   2.17069   2.25366   2.27111   2.38556
 Alpha virt. eigenvalues --    2.39055   2.40762   2.42185   2.47134   2.48173
 Alpha virt. eigenvalues --    2.50413   2.53877   2.55378   2.62673   2.63912
 Alpha virt. eigenvalues --    2.67400   2.69549   2.74632   2.75408   2.75884
 Alpha virt. eigenvalues --    2.81475   2.83491   2.86974   2.87307   2.87522
 Alpha virt. eigenvalues --    2.89235   2.96094   3.00632   3.04210   3.06132
 Alpha virt. eigenvalues --    3.07790   3.10312   3.11444   3.12265   3.13430
 Alpha virt. eigenvalues --    3.20818   3.21980   3.27824   3.27926   3.28403
 Alpha virt. eigenvalues --    3.28708   3.35413   3.41966   3.42328   3.45909
 Alpha virt. eigenvalues --    3.53478   3.54668   3.56364   3.56899   3.57098
 Alpha virt. eigenvalues --    3.58900   3.60097   3.65049   3.71278   3.71507
 Alpha virt. eigenvalues --    3.75988   3.78938   3.81005   3.85293   3.89325
 Alpha virt. eigenvalues --    3.95460   3.96258   3.98618   4.02803   4.45075
 Alpha virt. eigenvalues --    4.50240   4.53970   4.81076   4.95256   4.99512
 Alpha virt. eigenvalues --    5.04789   5.08916   5.12573   5.12798   5.22709
 Alpha virt. eigenvalues --    5.49794   5.52077   5.56577   5.60899   5.90604
 Alpha virt. eigenvalues --    5.97846   6.76779   6.78395   6.81726   6.84370
 Alpha virt. eigenvalues --    6.88055   6.89325   6.95520   6.98633   7.07450
 Alpha virt. eigenvalues --    7.18477  23.80837  24.04870  24.06101  24.09325
 Alpha virt. eigenvalues --   24.13235  35.73309  49.95796  50.02713
          Condensed to atoms (all electrons):
               1          2          3          4          5          6
     1  C    5.407615   0.132980   0.066766  -0.305112   0.190713   0.203550
     2  C    0.132980   5.127019   0.444760   0.114729  -0.281683   0.156987
     3  C    0.066766   0.444760   4.917035   0.443289   0.107937  -0.110858
     4  C   -0.305112   0.114729   0.443289   5.041946   0.260723   0.126742
     5  C    0.190713  -0.281683   0.107937   0.260723   5.201361   0.229589
     6  N    0.203550   0.156987  -0.110858   0.126742   0.229589   6.721951
     7  H   -0.000562  -0.011098   0.365841  -0.008792  -0.001024   0.000281
     8  H    0.440715  -0.064283   0.016563  -0.011658   0.018653  -0.079220
     9  H   -0.011823   0.366031  -0.023262   0.010410  -0.000912   0.002758
    10  H   -0.000201   0.012490  -0.025403   0.373413  -0.019435   0.003049
    11  H    0.021030  -0.013007   0.019440  -0.070437   0.444082  -0.072833
    12  O    0.000522   0.001033   0.000033   0.000061  -0.000399  -0.000486
    13  H    0.000094  -0.000349  -0.000006  -0.000013   0.000083   0.000083
    14  H   -0.000038   0.000022   0.000009  -0.000003  -0.000018   0.000002
    15  O   -0.000028   0.001112  -0.000007   0.000054  -0.000247  -0.000191
    16  H    0.002142  -0.001355  -0.000098  -0.000074   0.000179  -0.000058
    17  H    0.000052  -0.000138  -0.000002  -0.000004   0.000020   0.000021
               7          8          9         10         11         12
     1  C   -0.000562   0.440715  -0.011823  -0.000201   0.021030   0.000522
     2  C   -0.011098  -0.064283   0.366031   0.012490  -0.013007   0.001033
     3  C    0.365841   0.016563  -0.023262  -0.025403   0.019440   0.000033
     4  C   -0.008792  -0.011658   0.010410   0.373413  -0.070437   0.000061
     5  C   -0.001024   0.018653  -0.000912  -0.019435   0.444082  -0.000399
     6  N    0.000281  -0.079220   0.002758   0.003049  -0.072833  -0.000486
     7  H    0.531007  -0.000272  -0.004408  -0.004365  -0.000258   0.000000
     8  H   -0.000272   0.557389  -0.002198   0.000100   0.000034   0.000036
     9  H   -0.004408  -0.002198   0.530062  -0.000232   0.000097  -0.000000
    10  H   -0.004365   0.000100  -0.000232   0.528311  -0.002138  -0.000000
    11  H   -0.000258   0.000034   0.000097  -0.002138   0.539748   0.000000
    12  O    0.000000   0.000036  -0.000000  -0.000000   0.000000   8.071060
    13  H   -0.000000  -0.000023   0.000000   0.000000   0.000000   0.273188
    14  H   -0.000000   0.000002   0.000000   0.000000   0.000000   0.300414
    15  O    0.000000  -0.000055  -0.000001  -0.000000  -0.000000   0.013426
    16  H   -0.000000   0.000090   0.000001   0.000000   0.000000  -0.002512
    17  H   -0.000000  -0.000003   0.000000   0.000000   0.000000  -0.001785
              13         14         15         16         17
     1  C    0.000094  -0.000038  -0.000028   0.002142   0.000052
     2  C   -0.000349   0.000022   0.001112  -0.001355  -0.000138
     3  C   -0.000006   0.000009  -0.000007  -0.000098  -0.000002
     4  C   -0.000013  -0.000003   0.000054  -0.000074  -0.000004
     5  C    0.000083  -0.000018  -0.000247   0.000179   0.000020
     6  N    0.000083   0.000002  -0.000191  -0.000058   0.000021
     7  H   -0.000000  -0.000000   0.000000  -0.000000  -0.000000
     8  H   -0.000023   0.000002  -0.000055   0.000090  -0.000003
     9  H    0.000000   0.000000  -0.000001   0.000001   0.000000
    10  H    0.000000   0.000000  -0.000000   0.000000   0.000000
    11  H    0.000000   0.000000  -0.000000   0.000000   0.000000
    12  O    0.273188   0.300414   0.013426  -0.002512  -0.001785
    13  H    0.401967  -0.015173  -0.058856   0.002152   0.007390
    14  H   -0.015173   0.445410  -0.000754   0.000639   0.000884
    15  O   -0.058856  -0.000754   7.991628   0.329119   0.322687
    16  H    0.002152   0.000639   0.329119   0.391538  -0.023306
    17  H    0.007390   0.000884   0.322687  -0.023306   0.399259
 Mulliken charges:
               1
     1  C   -0.148413
     2  C    0.014751
     3  C   -0.222039
     4  C    0.024725
     5  C   -0.149623
     6  N   -0.181366
     7  H    0.133649
     8  H    0.124131
     9  H    0.133476
    10  H    0.134412
    11  H    0.134242
    12  O   -0.654591
    13  H    0.389464
    14  H    0.268603
    15  O   -0.597886
    16  H    0.301541
    17  H    0.294924
 Sum of Mulliken charges =  -0.00000
 Mulliken charges with hydrogens summed into heavy atoms:
               1
     1  C   -0.024282
     2  C    0.148227
     3  C   -0.088390
     4  C    0.159137
     5  C   -0.015381
     6  N   -0.181366
    12  O    0.003476
    15  O   -0.001422
         Mulliken charges condensed to fragments:
      1     -0.002054
      2      0.003476
      3     -0.001422
 Electronic spatial extent (au):  <R**2>=          61170.6593
 Charge=             -0.0000 electrons
 Dipole moment (field-independent basis, Debye):
    X=             -4.3365    Y=              0.1346    Z=              2.0601  Tot=              4.8029
 Quadrupole moment (field-independent basis, Debye-Ang):
   XX=           -109.5065   YY=            -28.5106   ZZ=            -41.5364
   XY=            -61.8426   XZ=              1.2546   YZ=             35.7156
 Traceless Quadrupole moment (field-independent basis, Debye-Ang):
   XX=            -49.6554   YY=             31.3406   ZZ=             18.3148
   XY=            -61.8426   XZ=              1.2546   YZ=             35.7156
 Octapole moment (field-independent basis, Debye-Ang**2):
  XXX=          -1545.0895  YYY=          -1287.9511  ZZZ=           -548.4939  XYY=          -1041.3249
  XXY=          -1618.1030  XXZ=           -221.6736  XZZ=           -268.0963  YZZ=           -587.7471
  YYZ=            504.7190  XYZ=             79.3607
 Hexadecapole moment (field-independent basis, Debye-Ang**3):
 XXXX=         -18958.4392 YYYY=         -38087.1577 ZZZZ=          -5004.0283 XXXY=         -23675.3699
 XXXZ=          -3235.4610 YYYX=         -19573.3224 YYYZ=           6228.3298 ZZZX=          -2755.5728
 ZZZY=          -7542.8531 XXYY=         -25109.1576 XXZZ=          -2618.1692 YYZZ=          -9034.4541
 XXYZ=          -2610.5576 YYXZ=           1736.2824 ZZXY=          -3856.9507
 N-N= 3.069902878419D+02 E-N=-1.552028445399D+03  KE= 3.994917172630D+02
 No NMR shielding tensors so no spin-rotation constants.
 Leave Link  601 at Sun Feb 19 11:54:56 2023, MaxMem=  6710886400 cpu:               2.2 elap:               0.1
 (Enter /data0/home/software/g16/l122.exe)
 CPIOFr:  IOpCl= 0 IRwI=-1 IRwCP=  731 ICalc= -1 LCPTot=      113933 Len1MO=      297342 IndFrg=      113933
 CPIOFr:  IOpCl= 0 IRwI=-1 IRwCP=  731 ICalc=  0 LCPTot=      113933 Len1MO=      297342 IndFrg=      411275
 Counterpoise: doing calculation for fragment   1 using the basis set of the full-system, NewBq=T
 Leave Link  122 at Sun Feb 19 11:54:56 2023, MaxMem=  6710886400 cpu:               0.2 elap:               0.0
 (Enter /data0/home/software/g16/l301.exe)
 Basis read from rwf:  (5D, 7F)
 No pseudopotential information found on rwf file.
   270 basis functions,   408 primitive gaussians,   286 cartesian basis functions
    21 alpha electrons       21 beta electrons
       nuclear repulsion energy       205.2270284371 Hartrees.
 IExCor= 4336 DFT=T Ex+Corr=M062X ExCW=0 ScaHFX=  0.540000
 ScaDFX=  1.000000  1.000000  1.000000  1.000000 ScalE2=  1.000000  1.000000
 IRadAn=      5 IRanWt=     -1 IRanGd=            0 ICorTp=0 IEmpDi=131
 NAtoms=   17 NActive=   17 NUniq=   17 SFac= 1.00D+00 NAtFMM=   60 NAOKFM=F Big=F
 Integral buffers will be    131072 words long.
 Raffenetti 2 integral format.
 Two-electron integral symmetry is turned off.
 R6Disp:  Grimme-D3 Dispersion energy=       -0.0000989678 Hartrees.
 Nuclear repulsion after empirical dispersion term =      205.2269294693 Hartrees.
 No density basis found on file   718.
 Leave Link  301 at Sun Feb 19 11:54:56 2023, MaxMem=  6710886400 cpu:               1.3 elap:               0.1
 (Enter /data0/home/software/g16/l302.exe)
 NPDir=0 NMtPBC=     1 NCelOv=     1 NCel=       1 NClECP=     1 NCelD=      1
         NCelK=      1 NCelE2=     1 NClLst=     1 CellRange=     0.0.
 One-electron integrals computed using PRISM.
 NBasis=   270 RedAO= T EigKep=  1.82D-05  NBF=   270
 NBsUse=   270 1.00D-06 EigRej= -1.00D+00 NBFU=   270
 Precomputing XC quadrature grid using
 IXCGrd= 4 IRadAn=           5 IRanWt=          -1 IRanGd=           0 AccXCQ= 0.00D+00.
 Generated NRdTot=       0 NPtTot=           0 NUsed=           0 NTot=          32
 NSgBfM=   284   284   284   284   284 MxSgAt=    17 MxSgA2=    17.
 Leave Link  302 at Sun Feb 19 11:54:56 2023, MaxMem=  6710886400 cpu:               4.1 elap:               0.2
 (Enter /data0/home/software/g16/l303.exe)
 DipDrv:  MaxL=1.
 Leave Link  303 at Sun Feb 19 11:54:56 2023, MaxMem=  6710886400 cpu:               0.6 elap:               0.0
 (Enter /data0/home/software/g16/l401.exe)
 ExpMin= 4.38D-02 ExpMax= 8.59D+03 ExpMxC= 1.30D+03 IAcc=3 IRadAn=         5 AccDes= 0.00D+00
 Harris functional with IExCor= 1009 and IRadAn=       5 diagonalized for initial guess.
 HarFok:  IExCor= 1009 AccDes= 0.00D+00 IRadAn=         5 IDoV= 1 UseB2=F ITyADJ=14
 ICtDFT=  3500011 ScaDFX=  1.000000  1.000000  1.000000  1.000000
 FoFCou: FMM=F IPFlag=           0 FMFlag=      100000 FMFlg1=           0
         NFxFlg=           0 DoJE=T BraDBF=F KetDBF=T FulRan=T
         wScrn=  0.000000 ICntrl=       500 IOpCl=  0 I1Cent=   200000004 NGrid=           0
         NMat0=    1 NMatS0=      1 NMatT0=    0 NMatD0=    1 NMtDS0=    0 NMtDT0=    0
 Symmetry not used in FoFCou.
 Harris En= -248.118882974263    
 JPrj=0 DoOrth=F DoCkMO=F.
 Leave Link  401 at Sun Feb 19 11:54:57 2023, MaxMem=  6710886400 cpu:              11.3 elap:               0.5
 (Enter /data0/home/software/g16/l502.exe)
 Two-electron integral symmetry not used.
 Closed shell SCF:
 Using DIIS extrapolation, IDIIS=  1040.
 NGot=  6710886400 LenX=  6710713849 LenY=  6710631612
 Requested convergence on RMS density matrix=1.00D-08 within 128 cycles.
 Requested convergence on MAX density matrix=1.00D-06.
 Requested convergence on             energy=1.00D-06.
 No special actions if energy rises.
 Fock matrices will be formed incrementally for  20 cycles.

 Cycle   1  Pass 1  IDiag  1:
 FoFJK:  IHMeth= 1 ICntrl=       0 DoSepK=F KAlg= 0 I1Cent=           0 FoldK=F
 IRaf= 800000000 NMat=       1 IRICut=       1 DoRegI=T DoRafI=F ISym2E= 0 IDoP0=0 IntGTp=1.
 FoFCou: FMM=F IPFlag=           0 FMFlag=      100000 FMFlg1=           0
         NFxFlg=           0 DoJE=F BraDBF=F KetDBF=F FulRan=T
         wScrn=  0.000000 ICntrl=         0 IOpCl=  0 I1Cent=           0 NGrid=           0
         NMat0=    1 NMatS0=      1 NMatT0=    0 NMatD0=    1 NMtDS0=    0 NMtDT0=    0
 Symmetry not used in FoFCou.
 E= -248.121860765615    
 DIIS: error= 3.94D-02 at cycle   1 NSaved=   1.
 NSaved= 1 IEnMin= 1 EnMin= -248.121860765615     IErMin= 1 ErrMin= 3.94D-02
 ErrMax= 3.94D-02  0.00D+00 EMaxC= 1.00D-01 BMatC= 1.51D-01 BMatP= 1.51D-01
 IDIUse=3 WtCom= 6.06D-01 WtEn= 3.94D-01
 Coeff-Com:  0.100D+01
 Coeff-En:   0.100D+01
 Coeff:      0.100D+01
 Gap=     0.339 Goal=   None    Shift=    0.000
 GapD=    0.339 DampG=1.000 DampE=0.500 DampFc=0.5000 IDamp=-1.
 Damping current iteration by 5.00D-01
 RMSDP=3.21D-03 MaxDP=1.02D-01              OVMax= 1.39D-01

 Cycle   2  Pass 1  IDiag  1:
 RMSU=  1.60D-03    CP:  9.96D-01
 E= -248.185759036895     Delta-E=       -0.063898271281 Rises=F Damp=T
 DIIS: error= 9.61D-03 at cycle   2 NSaved=   2.
 NSaved= 2 IEnMin= 2 EnMin= -248.185759036895     IErMin= 2 ErrMin= 9.61D-03
 ErrMax= 9.61D-03  0.00D+00 EMaxC= 1.00D-01 BMatC= 1.47D-02 BMatP= 1.51D-01
 IDIUse=3 WtCom= 9.04D-01 WtEn= 9.61D-02
 Coeff-Com: -0.223D+00 0.122D+01
 Coeff-En:   0.000D+00 0.100D+01
 Coeff:     -0.202D+00 0.120D+01
 Gap=     0.338 Goal=   None    Shift=    0.000
 RMSDP=8.80D-04 MaxDP=2.79D-02 DE=-6.39D-02 OVMax= 7.64D-02

 Cycle   3  Pass 1  IDiag  1:
 RMSU=  8.44D-04    CP:  9.78D-01  1.12D+00
 E= -248.242227667807     Delta-E=       -0.056468630912 Rises=F Damp=F
 DIIS: error= 5.00D-03 at cycle   3 NSaved=   3.
 NSaved= 3 IEnMin= 3 EnMin= -248.242227667807     IErMin= 3 ErrMin= 5.00D-03
 ErrMax= 5.00D-03  0.00D+00 EMaxC= 1.00D-01 BMatC= 2.58D-03 BMatP= 1.47D-02
 IDIUse=3 WtCom= 9.50D-01 WtEn= 5.00D-02
 Coeff-Com: -0.132D+00 0.392D+00 0.740D+00
 Coeff-En:   0.000D+00 0.000D+00 0.100D+01
 Coeff:     -0.125D+00 0.372D+00 0.753D+00
 Gap=     0.324 Goal=   None    Shift=    0.000
 RMSDP=2.81D-04 MaxDP=1.54D-02 DE=-5.65D-02 OVMax= 2.29D-02

 Cycle   4  Pass 1  IDiag  1:
 RMSU=  2.54D-04    CP:  9.68D-01  1.08D+00  1.03D+00
 E= -248.244445711619     Delta-E=       -0.002218043812 Rises=F Damp=F
 DIIS: error= 2.38D-03 at cycle   4 NSaved=   4.
 NSaved= 4 IEnMin= 4 EnMin= -248.244445711619     IErMin= 4 ErrMin= 2.38D-03
 ErrMax= 2.38D-03  0.00D+00 EMaxC= 1.00D-01 BMatC= 2.72D-04 BMatP= 2.58D-03
 IDIUse=3 WtCom= 9.76D-01 WtEn= 2.38D-02
 Coeff-Com: -0.448D-01 0.112D+00 0.321D+00 0.612D+00
 Coeff-En:   0.000D+00 0.000D+00 0.000D+00 0.100D+01
 Coeff:     -0.437D-01 0.109D+00 0.314D+00 0.621D+00
 Gap=     0.317 Goal=   None    Shift=    0.000
 RMSDP=7.34D-05 MaxDP=2.74D-03 DE=-2.22D-03 OVMax= 9.06D-03

 Cycle   5  Pass 1  IDiag  1:
 RMSU=  5.05D-05    CP:  9.69D-01  1.09D+00  1.02D+00  8.16D-01
 E= -248.244690606042     Delta-E=       -0.000244894422 Rises=F Damp=F
 DIIS: error= 8.86D-04 at cycle   5 NSaved=   5.
 NSaved= 5 IEnMin= 5 EnMin= -248.244690606042     IErMin= 5 ErrMin= 8.86D-04
 ErrMax= 8.86D-04  0.00D+00 EMaxC= 1.00D-01 BMatC= 3.83D-05 BMatP= 2.72D-04
 IDIUse=3 WtCom= 9.91D-01 WtEn= 8.86D-03
 Coeff-Com: -0.114D-01 0.231D-01 0.956D-01 0.319D+00 0.573D+00
 Coeff-En:   0.000D+00 0.000D+00 0.000D+00 0.685D-01 0.932D+00
 Coeff:     -0.113D-01 0.229D-01 0.948D-01 0.317D+00 0.576D+00
 Gap=     0.317 Goal=   None    Shift=    0.000
 RMSDP=3.57D-05 MaxDP=1.06D-03 DE=-2.45D-04 OVMax= 2.53D-03

 Cycle   6  Pass 1  IDiag  1:
 RMSU=  2.22D-05    CP:  9.69D-01  1.08D+00  1.03D+00  8.38D-01  7.12D-01
 E= -248.244729357603     Delta-E=       -0.000038751561 Rises=F Damp=F
 DIIS: error= 1.69D-04 at cycle   6 NSaved=   6.
 NSaved= 6 IEnMin= 6 EnMin= -248.244729357603     IErMin= 6 ErrMin= 1.69D-04
 ErrMax= 1.69D-04  0.00D+00 EMaxC= 1.00D-01 BMatC= 1.73D-06 BMatP= 3.83D-05
 IDIUse=3 WtCom= 9.98D-01 WtEn= 1.69D-03
 Coeff-Com: -0.357D-02 0.653D-02 0.323D-01 0.122D+00 0.271D+00 0.572D+00
 Coeff-En:   0.000D+00 0.000D+00 0.000D+00 0.000D+00 0.000D+00 0.100D+01
 Coeff:     -0.357D-02 0.652D-02 0.322D-01 0.122D+00 0.270D+00 0.573D+00
 Gap=     0.317 Goal=   None    Shift=    0.000
 RMSDP=5.20D-06 MaxDP=2.42D-04 DE=-3.88D-05 OVMax= 6.13D-04

 Cycle   7  Pass 1  IDiag  1:
 RMSU=  4.39D-06    CP:  9.69D-01  1.08D+00  1.03D+00  8.34D-01  7.52D-01
                    CP:  1.04D+00
 E= -248.244730814433     Delta-E=       -0.000001456830 Rises=F Damp=F
 DIIS: error= 3.40D-05 at cycle   7 NSaved=   7.
 NSaved= 7 IEnMin= 7 EnMin= -248.244730814433     IErMin= 7 ErrMin= 3.40D-05
 ErrMax= 3.40D-05  0.00D+00 EMaxC= 1.00D-01 BMatC= 1.84D-07 BMatP= 1.73D-06
 IDIUse=1 WtCom= 1.00D+00 WtEn= 0.00D+00
 Coeff-Com:  0.146D-02-0.321D-02-0.104D-01-0.314D-01-0.319D-01 0.225D+00
 Coeff-Com:  0.850D+00
 Coeff:      0.146D-02-0.321D-02-0.104D-01-0.314D-01-0.319D-01 0.225D+00
 Coeff:      0.850D+00
 Gap=     0.317 Goal=   None    Shift=    0.000
 RMSDP=5.34D-06 MaxDP=1.73D-04 DE=-1.46D-06 OVMax= 1.27D-04

 Cycle   8  Pass 1  IDiag  1:
 RMSU=  1.34D-06    CP:  9.69D-01  1.07D+00  1.03D+00  8.36D-01  7.56D-01
                    CP:  1.17D+00  9.56D-01
 E= -248.244730982145     Delta-E=       -0.000000167712 Rises=F Damp=F
 DIIS: error= 5.30D-06 at cycle   8 NSaved=   8.
 NSaved= 8 IEnMin= 8 EnMin= -248.244730982145     IErMin= 8 ErrMin= 5.30D-06
 ErrMax= 5.30D-06  0.00D+00 EMaxC= 1.00D-01 BMatC= 3.46D-09 BMatP= 1.84D-07
 IDIUse=1 WtCom= 1.00D+00 WtEn= 0.00D+00
 Coeff-Com:  0.376D-03-0.811D-03-0.283D-02-0.958D-02-0.141D-01 0.385D-01
 Coeff-Com:  0.136D+00 0.852D+00
 Coeff:      0.376D-03-0.811D-03-0.283D-02-0.958D-02-0.141D-01 0.385D-01
 Coeff:      0.136D+00 0.852D+00
 Gap=     0.317 Goal=   None    Shift=    0.000
 RMSDP=4.37D-07 MaxDP=1.63D-05 DE=-1.68D-07 OVMax= 2.36D-05

 Cycle   9  Pass 1  IDiag  1:
 RMSU=  2.63D-07    CP:  9.69D-01  1.07D+00  1.03D+00  8.36D-01  7.55D-01
                    CP:  1.18D+00  9.65D-01  1.11D+00
 E= -248.244730985567     Delta-E=       -0.000000003422 Rises=F Damp=F
 DIIS: error= 3.05D-06 at cycle   9 NSaved=   9.
 NSaved= 9 IEnMin= 9 EnMin= -248.244730985567     IErMin= 9 ErrMin= 3.05D-06
 ErrMax= 3.05D-06  0.00D+00 EMaxC= 1.00D-01 BMatC= 1.05D-09 BMatP= 3.46D-09
 IDIUse=1 WtCom= 1.00D+00 WtEn= 0.00D+00
 Coeff-Com: -0.708D-04 0.158D-03 0.484D-03 0.764D-03-0.724D-03-0.103D-01
 Coeff-Com: -0.715D-01 0.362D+00 0.719D+00
 Coeff:     -0.708D-04 0.158D-03 0.484D-03 0.764D-03-0.724D-03-0.103D-01
 Coeff:     -0.715D-01 0.362D+00 0.719D+00
 Gap=     0.317 Goal=   None    Shift=    0.000
 RMSDP=1.62D-07 MaxDP=4.19D-06 DE=-3.42D-09 OVMax= 1.87D-05

 Cycle  10  Pass 1  IDiag  1:
 RMSU=  1.11D-07    CP:  9.69D-01  1.07D+00  1.03D+00  8.36D-01  7.54D-01
                    CP:  1.18D+00  9.63D-01  1.16D+00  1.02D+00
 E= -248.244730986860     Delta-E=       -0.000000001293 Rises=F Damp=F
 DIIS: error= 6.74D-07 at cycle  10 NSaved=  10.
 NSaved=10 IEnMin=10 EnMin= -248.244730986860     IErMin=10 ErrMin= 6.74D-07
 ErrMax= 6.74D-07  0.00D+00 EMaxC= 1.00D-01 BMatC= 7.03D-11 BMatP= 1.05D-09
 IDIUse=1 WtCom= 1.00D+00 WtEn= 0.00D+00
 Coeff-Com: -0.151D-04 0.347D-04 0.157D-03 0.349D-03 0.641D-03-0.912D-04
 Coeff-Com: -0.996D-02-0.944D-01 0.619D-01 0.104D+01
 Coeff:     -0.151D-04 0.347D-04 0.157D-03 0.349D-03 0.641D-03-0.912D-04
 Coeff:     -0.996D-02-0.944D-01 0.619D-01 0.104D+01
 Gap=     0.317 Goal=   None    Shift=    0.000
 RMSDP=5.22D-08 MaxDP=2.03D-06 DE=-1.29D-09 OVMax= 5.60D-06

 Cycle  11  Pass 1  IDiag  1:
 RMSU=  3.34D-08    CP:  9.69D-01  1.07D+00  1.03D+00  8.36D-01  7.54D-01
                    CP:  1.18D+00  9.61D-01  1.18D+00  1.13D+00  1.14D+00
 E= -248.244730986938     Delta-E=       -0.000000000078 Rises=F Damp=F
 DIIS: error= 4.39D-07 at cycle  11 NSaved=  11.
 NSaved=11 IEnMin=11 EnMin= -248.244730986938     IErMin=11 ErrMin= 4.39D-07
 ErrMax= 4.39D-07  0.00D+00 EMaxC= 1.00D-01 BMatC= 1.25D-11 BMatP= 7.03D-11
 IDIUse=1 WtCom= 1.00D+00 WtEn= 0.00D+00
 Coeff-Com: -0.237D-05 0.615D-05 0.508D-04 0.130D-03 0.407D-03 0.949D-03
 Coeff-Com: -0.224D-03-0.848D-01-0.155D-01 0.572D+00 0.527D+00
 Coeff:     -0.237D-05 0.615D-05 0.508D-04 0.130D-03 0.407D-03 0.949D-03
 Coeff:     -0.224D-03-0.848D-01-0.155D-01 0.572D+00 0.527D+00
 Gap=     0.317 Goal=   None    Shift=    0.000
 RMSDP=1.28D-08 MaxDP=5.79D-07 DE=-7.78D-11 OVMax= 1.73D-06

 Cycle  12  Pass 1  IDiag  1:
 RMSU=  1.09D-08    CP:  9.69D-01  1.07D+00  1.03D+00  8.36D-01  7.54D-01
                    CP:  1.18D+00  9.61D-01  1.18D+00  1.14D+00  1.18D+00
                    CP:  1.00D+00
 E= -248.244730986956     Delta-E=       -0.000000000018 Rises=F Damp=F
 DIIS: error= 7.98D-08 at cycle  12 NSaved=  12.
 NSaved=12 IEnMin=12 EnMin= -248.244730986956     IErMin=12 ErrMin= 7.98D-08
 ErrMax= 7.98D-08  0.00D+00 EMaxC= 1.00D-01 BMatC= 4.17D-13 BMatP= 1.25D-11
 IDIUse=1 WtCom= 1.00D+00 WtEn= 0.00D+00
 Coeff-Com:  0.152D-05-0.323D-05-0.640D-05-0.798D-05 0.261D-04 0.386D-03
 Coeff-Com:  0.118D-02-0.988D-02-0.696D-02-0.449D-03 0.134D+00 0.881D+00
 Coeff:      0.152D-05-0.323D-05-0.640D-05-0.798D-05 0.261D-04 0.386D-03
 Coeff:      0.118D-02-0.988D-02-0.696D-02-0.449D-03 0.134D+00 0.881D+00
 Gap=     0.317 Goal=   None    Shift=    0.000
 RMSDP=4.96D-09 MaxDP=1.21D-07 DE=-1.81D-11 OVMax= 3.92D-07

 SCF Done:  E(RM062X) =  -248.244730987     A.U. after   12 cycles
            NFock= 12  Conv=0.50D-08     -V/T= 2.0048
 KE= 2.470621112986D+02 PE=-9.869265403236D+02 EE= 2.863927685686D+02
 Leave Link  502 at Sun Feb 19 11:55:09 2023, MaxMem=  6710886400 cpu:             297.4 elap:              12.5
 (Enter /data0/home/software/g16/l601.exe)
 Copying SCF densities to generalized density rwf, IOpCl= 0 IROHF=0.

 **********************************************************************

            Population analysis using the SCF density.

 **********************************************************************

 Alpha  occ. eigenvalues --  -14.75052 -10.58412 -10.58331 -10.56654 -10.55703
 Alpha  occ. eigenvalues --  -10.55698  -1.04991  -0.90690  -0.86242  -0.71813
 Alpha  occ. eigenvalues --   -0.71448  -0.60854  -0.55194  -0.54687  -0.50123
 Alpha  occ. eigenvalues --   -0.47397  -0.47257  -0.43073  -0.34795  -0.32527
 Alpha  occ. eigenvalues --   -0.32094
 Alpha virt. eigenvalues --   -0.00349   0.00683   0.01114   0.02485   0.03006
 Alpha virt. eigenvalues --    0.04652   0.05204   0.06037   0.07103   0.08258
 Alpha virt. eigenvalues --    0.09175   0.09273   0.09564   0.10639   0.12535
 Alpha virt. eigenvalues --    0.13414   0.13793   0.14040   0.14886   0.15209
 Alpha virt. eigenvalues --    0.15640   0.17297   0.18162   0.19108   0.19169
 Alpha virt. eigenvalues --    0.20004   0.20885   0.21226   0.21759   0.22541
 Alpha virt. eigenvalues --    0.23007   0.23531   0.24367   0.25102   0.25684
 Alpha virt. eigenvalues --    0.27240   0.27590   0.29012   0.30158   0.30684
 Alpha virt. eigenvalues --    0.32452   0.33192   0.34687   0.35152   0.35394
 Alpha virt. eigenvalues --    0.36427   0.37940   0.40953   0.46622   0.49423
 Alpha virt. eigenvalues --    0.51044   0.51883   0.54373   0.54474   0.55595
 Alpha virt. eigenvalues --    0.56048   0.59014   0.59433   0.60574   0.61806
 Alpha virt. eigenvalues --    0.64124   0.64742   0.65181   0.65755   0.66383
 Alpha virt. eigenvalues --    0.67041   0.68020   0.69209   0.73114   0.76607
 Alpha virt. eigenvalues --    0.77370   0.79653   0.79993   0.80763   0.81545
 Alpha virt. eigenvalues --    0.82502   0.82752   0.82869   0.83849   0.84292
 Alpha virt. eigenvalues --    0.84384   0.85687   0.86291   0.86643   0.89352
 Alpha virt. eigenvalues --    0.90185   0.90808   0.91411   0.95215   0.96644
 Alpha virt. eigenvalues --    0.97638   1.03718   1.04496   1.07716   1.08664
 Alpha virt. eigenvalues --    1.12841   1.16591   1.17778   1.20311   1.21664
 Alpha virt. eigenvalues --    1.26008   1.28023   1.31885   1.35191   1.35445
 Alpha virt. eigenvalues --    1.35798   1.38534   1.38961   1.44388   1.44644
 Alpha virt. eigenvalues --    1.49822   1.50580   1.52820   1.53250   1.56574
 Alpha virt. eigenvalues --    1.61838   1.63839   1.68369   1.73672   1.81209
 Alpha virt. eigenvalues --    1.83851   1.85633   1.86606   1.90430   1.90951
 Alpha virt. eigenvalues --    1.93945   1.94112   1.99626   2.00531   2.02086
 Alpha virt. eigenvalues --    2.08745   2.17347   2.17481   2.21743   2.25815
 Alpha virt. eigenvalues --    2.26726   2.30117   2.36643   2.39621   2.41234
 Alpha virt. eigenvalues --    2.47695   2.50878   2.53257   2.56558   2.60312
 Alpha virt. eigenvalues --    2.64310   2.65314   2.67643   2.67854   2.69980
 Alpha virt. eigenvalues --    2.71717   2.73646   2.75058   2.75706   2.76079
 Alpha virt. eigenvalues --    2.76306   2.77449   2.81189   2.82209   2.84007
 Alpha virt. eigenvalues --    2.85596   2.87501   2.87731   2.89701   2.96997
 Alpha virt. eigenvalues --    3.01085   3.03198   3.06619   3.08215   3.09648
 Alpha virt. eigenvalues --    3.10736   3.11882   3.13866   3.15719   3.21204
 Alpha virt. eigenvalues --    3.22363   3.26574   3.28250   3.28353   3.28816
 Alpha virt. eigenvalues --    3.29144   3.35870   3.42438   3.42763   3.46357
 Alpha virt. eigenvalues --    3.53837   3.55056   3.56811   3.57360   3.57519
 Alpha virt. eigenvalues --    3.59280   3.60506   3.61381   3.64042   3.65464
 Alpha virt. eigenvalues --    3.71131   3.71882   3.72586   3.76416   3.79400
 Alpha virt. eigenvalues --    3.81097   3.81581   3.85726   3.89803   3.95894
 Alpha virt. eigenvalues --    3.96753   3.99063   4.03286   4.45514   4.50691
 Alpha virt. eigenvalues --    4.54405   4.67202   4.77413   4.81541   4.95707
 Alpha virt. eigenvalues --    4.99992   5.05272   5.13082   5.23168   5.29040
 Alpha virt. eigenvalues --    5.35159   5.57060   5.61371  10.25016  10.26784
 Alpha virt. eigenvalues --   10.28839  10.30607  10.34465  10.41360  10.42152
 Alpha virt. eigenvalues --   10.45505  10.58601  10.66403  13.40505  13.48209
 Alpha virt. eigenvalues --   13.80385  13.84152  14.31214  14.34405  18.41579
 Alpha virt. eigenvalues --   18.48103  23.81280  24.05329  24.06518  24.09791
 Alpha virt. eigenvalues --   24.13683  35.73784 139.75622 139.76530
          Condensed to atoms (all electrons):
               1          2          3          4          5          6
     1  C    5.230398   0.236377   0.097142  -0.236016   0.163529   0.217191
     2  C    0.236377   5.019909   0.437835   0.107242  -0.265281   0.151174
     3  C    0.097142   0.437835   4.890137   0.451692   0.102562  -0.107520
     4  C   -0.236016   0.107242   0.451692   4.953920   0.277712   0.128211
     5  C    0.163529  -0.265281   0.102562   0.277712   5.208618   0.217430
     6  N    0.217191   0.151174  -0.107520   0.128211   0.217430   6.721724
     7  H   -0.000764  -0.008081   0.364804  -0.010860  -0.001055   0.000305
     8  H    0.442897  -0.070465   0.018133  -0.010848   0.018973  -0.073472
     9  H   -0.016956   0.371487  -0.024717   0.011599  -0.001011   0.002789
    10  H   -0.001005   0.011312  -0.027051   0.375995  -0.018492   0.002847
    11  H    0.019718  -0.011993   0.018618  -0.070756   0.445944  -0.074427
    12  O   -0.000004  -0.000019  -0.000000  -0.000003   0.000007  -0.000018
    13  H    0.000010   0.000008   0.000000   0.000000  -0.000002   0.000002
    14  H   -0.000005  -0.000001   0.000000  -0.000001  -0.000002   0.000002
    15  O   -0.000191   0.000119  -0.000015   0.000017  -0.000007   0.000059
    16  H    0.000235  -0.000198   0.000020  -0.000025   0.000014  -0.000091
    17  H    0.000007  -0.000007   0.000001  -0.000001   0.000000  -0.000002
               7          8          9         10         11         12
     1  C   -0.000764   0.442897  -0.016956  -0.001005   0.019718  -0.000004
     2  C   -0.008081  -0.070465   0.371487   0.011312  -0.011993  -0.000019
     3  C    0.364804   0.018133  -0.024717  -0.027051   0.018618  -0.000000
     4  C   -0.010860  -0.010848   0.011599   0.375995  -0.070756  -0.000003
     5  C   -0.001055   0.018973  -0.001011  -0.018492   0.445944   0.000007
     6  N    0.000305  -0.073472   0.002789   0.002847  -0.074427  -0.000018
     7  H    0.532596  -0.000262  -0.004440  -0.004386  -0.000263   0.000000
     8  H   -0.000262   0.540930  -0.002019   0.000096   0.000048   0.000002
     9  H   -0.004440  -0.002019   0.530367  -0.000234   0.000097   0.000000
    10  H   -0.004386   0.000096  -0.000234   0.530073  -0.002120   0.000000
    11  H   -0.000263   0.000048   0.000097  -0.002120   0.542886   0.000000
    12  O    0.000000   0.000002   0.000000   0.000000   0.000000   0.000063
    13  H   -0.000000  -0.000001  -0.000000  -0.000000  -0.000000  -0.000049
    14  H    0.000000  -0.000000  -0.000000  -0.000000  -0.000000  -0.000014
    15  O    0.000000  -0.000085  -0.000000   0.000000  -0.000000  -0.000006
    16  H   -0.000000   0.000117   0.000000   0.000000   0.000000   0.000016
    17  H   -0.000000   0.000004   0.000000   0.000000   0.000000   0.000001
              13         14         15         16         17
     1  C    0.000010  -0.000005  -0.000191   0.000235   0.000007
     2  C    0.000008  -0.000001   0.000119  -0.000198  -0.000007
     3  C    0.000000   0.000000  -0.000015   0.000020   0.000001
     4  C    0.000000  -0.000001   0.000017  -0.000025  -0.000001
     5  C   -0.000002  -0.000002  -0.000007   0.000014   0.000000
     6  N    0.000002   0.000002   0.000059  -0.000091  -0.000002
     7  H   -0.000000   0.000000   0.000000  -0.000000  -0.000000
     8  H   -0.000001  -0.000000  -0.000085   0.000117   0.000004
     9  H   -0.000000  -0.000000  -0.000000   0.000000   0.000000
    10  H   -0.000000  -0.000000   0.000000   0.000000   0.000000
    11  H   -0.000000  -0.000000  -0.000000   0.000000   0.000000
    12  O   -0.000049  -0.000014  -0.000006   0.000016   0.000001
    13  H    0.000049   0.000005  -0.000006  -0.000009   0.000002
    14  H    0.000005   0.000011  -0.000002   0.000002   0.000001
    15  O   -0.000006  -0.000002   0.000256  -0.000181  -0.000079
    16  H   -0.000009   0.000002  -0.000181   0.000166   0.000040
    17  H    0.000002   0.000001  -0.000079   0.000040   0.000039
 Mulliken charges:
               1
     1  C   -0.152562
     2  C    0.020583
     3  C   -0.221642
     4  C    0.022123
     5  C   -0.148939
     6  N   -0.186201
     7  H    0.132407
     8  H    0.135951
     9  H    0.133037
    10  H    0.132965
    11  H    0.132248
    12  O    0.000024
    13  H   -0.000010
    14  H    0.000006
    15  O    0.000122
    16  H   -0.000106
    17  H   -0.000006
 Sum of Mulliken charges =  -0.00000
 Mulliken charges with hydrogens summed into heavy atoms:
               1
     1  C   -0.016611
     2  C    0.153620
     3  C   -0.089236
     4  C    0.155088
     5  C   -0.016691
     6  N   -0.186201
    12  O    0.000020
    15  O    0.000011
         Mulliken charges condensed to fragments:
      1     -0.000030
      2      0.000020
      3      0.000011
 Electronic spatial extent (au):  <R**2>=          33191.9418
 Charge=             -0.0000 electrons
 Dipole moment (field-independent basis, Debye):
    X=             -2.1752    Y=             -0.4984    Z=              0.3240  Tot=              2.2550
 Quadrupole moment (field-independent basis, Debye-Ang):
   XX=            -54.8154   YY=            -42.7254   ZZ=            -35.4848
   XY=            -32.8234   XZ=             -8.8639   YZ=              1.4899
 Traceless Quadrupole moment (field-independent basis, Debye-Ang):
   XX=            -10.4735   YY=              1.6164   ZZ=              8.8571
   XY=            -32.8234   XZ=             -8.8639   YZ=              1.4899
 Octapole moment (field-independent basis, Debye-Ang**2):
  XXX=           -603.6809  YYY=          -1442.6172  ZZZ=           -514.3725  XYY=           -614.8878
  XXY=           -759.2707  XXZ=           -247.0141  XZZ=           -201.2913  YZZ=           -488.8222
  YYZ=           -154.4102  XYZ=           -137.5598
 Hexadecapole moment (field-independent basis, Debye-Ang**3):
 XXXX=          -5274.8463 YYYY=         -36344.0385 ZZZZ=          -4883.9051 XXXY=          -8252.3198
 XXXZ=          -2734.3680 YYYX=         -12240.0669 YYYZ=          -6194.8818 ZZZX=          -2428.3082
 ZZZY=          -6933.0666 XXYY=         -11126.8180 XXZZ=          -1885.5116 YYZZ=          -7420.7818
 XXYZ=          -3426.4591 YYXZ=          -2675.5893 ZZXY=          -2780.9422
 N-N= 2.052269294693D+02 E-N=-9.869265417391D+02  KE= 2.470621112986D+02
 No NMR shielding tensors so no spin-rotation constants.
 Leave Link  601 at Sun Feb 19 11:55:09 2023, MaxMem=  6710886400 cpu:               2.2 elap:               0.1
 (Enter /data0/home/software/g16/l122.exe)
 CPIOFr:  IOpCl= 0 IRwI=-1 IRwCP=  731 ICalc=  1 LCPTot=      113933 Len1MO=      297342 IndFrg=      708617
 Counterpoise: doing calculation for fragment   2 using the basis set of the full-system, NewBq=T
 Leave Link  122 at Sun Feb 19 11:55:10 2023, MaxMem=  6710886400 cpu:               0.1 elap:               0.0
 (Enter /data0/home/software/g16/l301.exe)
 Basis read from rwf:  (5D, 7F)
 No pseudopotential information found on rwf file.
   270 basis functions,   408 primitive gaussians,   286 cartesian basis functions
     5 alpha electrons        5 beta electrons
       nuclear repulsion energy         9.1043758336 Hartrees.
 IExCor= 4336 DFT=T Ex+Corr=M062X ExCW=0 ScaHFX=  0.540000
 ScaDFX=  1.000000  1.000000  1.000000  1.000000 ScalE2=  1.000000  1.000000
 IRadAn=      5 IRanWt=     -1 IRanGd=            0 ICorTp=0 IEmpDi=131
 NAtoms=   17 NActive=   17 NUniq=   17 SFac= 1.00D+00 NAtFMM=   60 NAOKFM=F Big=F
 Integral buffers will be    131072 words long.
 Raffenetti 2 integral format.
 Two-electron integral symmetry is turned off.
 R6Disp:  Grimme-D3 Dispersion energy=       -0.0000000078 Hartrees.
 Nuclear repulsion after empirical dispersion term =        9.1043758258 Hartrees.
 No density basis found on file   718.
 Leave Link  301 at Sun Feb 19 11:55:10 2023, MaxMem=  6710886400 cpu:               1.3 elap:               0.1
 (Enter /data0/home/software/g16/l302.exe)
 NPDir=0 NMtPBC=     1 NCelOv=     1 NCel=       1 NClECP=     1 NCelD=      1
         NCelK=      1 NCelE2=     1 NClLst=     1 CellRange=     0.0.
 One-electron integrals computed using PRISM.
 NBasis=   270 RedAO= T EigKep=  1.82D-05  NBF=   270
 NBsUse=   270 1.00D-06 EigRej= -1.00D+00 NBFU=   270
 Precomputing XC quadrature grid using
 IXCGrd= 4 IRadAn=           5 IRanWt=          -1 IRanGd=           0 AccXCQ= 0.00D+00.
 Generated NRdTot=       0 NPtTot=           0 NUsed=           0 NTot=          32
 NSgBfM=   284   284   284   284   284 MxSgAt=    17 MxSgA2=    17.
 Leave Link  302 at Sun Feb 19 11:55:10 2023, MaxMem=  6710886400 cpu:               4.2 elap:               0.2
 (Enter /data0/home/software/g16/l303.exe)
 DipDrv:  MaxL=1.
 Leave Link  303 at Sun Feb 19 11:55:10 2023, MaxMem=  6710886400 cpu:               0.6 elap:               0.0
 (Enter /data0/home/software/g16/l401.exe)
 ExpMin= 4.38D-02 ExpMax= 8.59D+03 ExpMxC= 1.30D+03 IAcc=3 IRadAn=         5 AccDes= 0.00D+00
 Harris functional with IExCor= 1009 and IRadAn=       5 diagonalized for initial guess.
 HarFok:  IExCor= 1009 AccDes= 0.00D+00 IRadAn=         5 IDoV= 1 UseB2=F ITyADJ=14
 ICtDFT=  3500011 ScaDFX=  1.000000  1.000000  1.000000  1.000000
 FoFCou: FMM=F IPFlag=           0 FMFlag=      100000 FMFlg1=           0
         NFxFlg=           0 DoJE=T BraDBF=F KetDBF=T FulRan=T
         wScrn=  0.000000 ICntrl=       500 IOpCl=  0 I1Cent=   200000004 NGrid=           0
         NMat0=    1 NMatS0=      1 NMatT0=    0 NMatD0=    1 NMtDS0=    0 NMtDT0=    0
 Symmetry not used in FoFCou.
 Harris En= -76.4168311788239    
 JPrj=0 DoOrth=F DoCkMO=F.
 Leave Link  401 at Sun Feb 19 11:55:10 2023, MaxMem=  6710886400 cpu:              11.5 elap:               0.5
 (Enter /data0/home/software/g16/l502.exe)
 Two-electron integral symmetry not used.
 Closed shell SCF:
 Using DIIS extrapolation, IDIIS=  1040.
 NGot=  6710886400 LenX=  6710713849 LenY=  6710631612
 Requested convergence on RMS density matrix=1.00D-08 within 128 cycles.
 Requested convergence on MAX density matrix=1.00D-06.
 Requested convergence on             energy=1.00D-06.
 No special actions if energy rises.
 Fock matrices will be formed incrementally for  20 cycles.

 Cycle   1  Pass 1  IDiag  1:
 FoFJK:  IHMeth= 1 ICntrl=       0 DoSepK=F KAlg= 0 I1Cent=           0 FoldK=F
 IRaf= 800000000 NMat=       1 IRICut=       1 DoRegI=T DoRafI=F ISym2E= 0 IDoP0=0 IntGTp=1.
 FoFCou: FMM=F IPFlag=           0 FMFlag=      100000 FMFlg1=           0
         NFxFlg=           0 DoJE=F BraDBF=F KetDBF=F FulRan=T
         wScrn=  0.000000 ICntrl=         0 IOpCl=  0 I1Cent=           0 NGrid=           0
         NMat0=    1 NMatS0=      1 NMatT0=    0 NMatD0=    1 NMtDS0=    0 NMtDT0=    0
 Symmetry not used in FoFCou.
 E= -76.3465699324044    
 DIIS: error= 2.85D-02 at cycle   1 NSaved=   1.
 NSaved= 1 IEnMin= 1 EnMin= -76.3465699324044     IErMin= 1 ErrMin= 2.85D-02
 ErrMax= 2.85D-02  0.00D+00 EMaxC= 1.00D-01 BMatC= 1.21D-01 BMatP= 1.21D-01
 IDIUse=3 WtCom= 7.15D-01 WtEn= 2.85D-01
 Coeff-Com:  0.100D+01
 Coeff-En:   0.100D+01
 Coeff:      0.100D+01
 Gap=     0.287 Goal=   None    Shift=    0.000
 GapD=    0.287 DampG=1.000 DampE=0.500 DampFc=0.5000 IDamp=-1.
 Damping current iteration by 5.00D-01
 RMSDP=1.84D-03 MaxDP=1.00D-01              OVMax= 1.70D-01

 Cycle   2  Pass 1  IDiag  1:
 RMSU=  9.22D-04    CP:  9.94D-01
 E= -76.3778500479212     Delta-E=       -0.031280115517 Rises=F Damp=T
 DIIS: error= 5.89D-03 at cycle   2 NSaved=   2.
 NSaved= 2 IEnMin= 2 EnMin= -76.3778500479212     IErMin= 2 ErrMin= 5.89D-03
 ErrMax= 5.89D-03  0.00D+00 EMaxC= 1.00D-01 BMatC= 4.90D-03 BMatP= 1.21D-01
 IDIUse=3 WtCom= 9.41D-01 WtEn= 5.89D-02
 Coeff-Com:  0.839D-01 0.916D+00
 Coeff-En:   0.191D+00 0.809D+00
 Coeff:      0.902D-01 0.910D+00
 Gap=     0.409 Goal=   None    Shift=    0.000
 RMSDP=5.48D-04 MaxDP=3.26D-02 DE=-3.13D-02 OVMax= 1.02D-01

 Cycle   3  Pass 1  IDiag  1:
 RMSU=  3.57D-04    CP:  9.80D-01  5.53D-01
 E= -76.4219497181869     Delta-E=       -0.044099670266 Rises=F Damp=F
 DIIS: error= 1.14D-03 at cycle   3 NSaved=   3.
 NSaved= 3 IEnMin= 3 EnMin= -76.4219497181869     IErMin= 3 ErrMin= 1.14D-03
 ErrMax= 1.14D-03  0.00D+00 EMaxC= 1.00D-01 BMatC= 1.46D-04 BMatP= 4.90D-03
 IDIUse=3 WtCom= 9.89D-01 WtEn= 1.14D-02
 Coeff-Com: -0.268D-01 0.515D-01 0.975D+00
 Coeff-En:   0.000D+00 0.000D+00 0.100D+01
 Coeff:     -0.265D-01 0.510D-01 0.976D+00
 Gap=     0.411 Goal=   None    Shift=    0.000
 RMSDP=3.97D-05 MaxDP=1.60D-03 DE=-4.41D-02 OVMax= 3.85D-03

 Cycle   4  Pass 1  IDiag  1:
 RMSU=  2.08D-05    CP:  9.78D-01  5.45D-01  1.09D+00
 E= -76.4220668224238     Delta-E=       -0.000117104237 Rises=F Damp=F
 DIIS: error= 1.58D-04 at cycle   4 NSaved=   4.
 NSaved= 4 IEnMin= 4 EnMin= -76.4220668224238     IErMin= 4 ErrMin= 1.58D-04
 ErrMax= 1.58D-04  0.00D+00 EMaxC= 1.00D-01 BMatC= 2.95D-06 BMatP= 1.46D-04
 IDIUse=3 WtCom= 9.98D-01 WtEn= 1.58D-03
 Coeff-Com: -0.315D-02 0.407D-03 0.156D+00 0.847D+00
 Coeff-En:   0.000D+00 0.000D+00 0.000D+00 0.100D+01
 Coeff:     -0.314D-02 0.406D-03 0.155D+00 0.847D+00
 Gap=     0.411 Goal=   None    Shift=    0.000
 RMSDP=7.45D-06 MaxDP=3.46D-04 DE=-1.17D-04 OVMax= 5.17D-04

 Cycle   5  Pass 1  IDiag  1:
 RMSU=  4.19D-06    CP:  9.77D-01  5.41D-01  1.10D+00  1.11D+00
 E= -76.4220686594112     Delta-E=       -0.000001836987 Rises=F Damp=F
 DIIS: error= 3.44D-05 at cycle   5 NSaved=   5.
 NSaved= 5 IEnMin= 5 EnMin= -76.4220686594112     IErMin= 5 ErrMin= 3.44D-05
 ErrMax= 3.44D-05  0.00D+00 EMaxC= 1.00D-01 BMatC= 7.98D-08 BMatP= 2.95D-06
 IDIUse=1 WtCom= 1.00D+00 WtEn= 0.00D+00
 Coeff-Com:  0.145D-02-0.226D-02-0.368D-01-0.615D-01 0.110D+01
 Coeff:      0.145D-02-0.226D-02-0.368D-01-0.615D-01 0.110D+01
 Gap=     0.412 Goal=   None    Shift=    0.000
 RMSDP=3.83D-06 MaxDP=1.73D-04 DE=-1.84D-06 OVMax= 2.08D-04

 Cycle   6  Pass 1  IDiag  1:
 RMSU=  8.62D-07    CP:  9.77D-01  5.38D-01  1.10D+00  1.19D+00  1.20D+00
 E= -76.4220687947082     Delta-E=       -0.000000135297 Rises=F Damp=F
 DIIS: error= 4.31D-06 at cycle   6 NSaved=   6.
 NSaved= 6 IEnMin= 6 EnMin= -76.4220687947082     IErMin= 6 ErrMin= 4.31D-06
 ErrMax= 4.31D-06  0.00D+00 EMaxC= 1.00D-01 BMatC= 1.60D-09 BMatP= 7.98D-08
 IDIUse=1 WtCom= 1.00D+00 WtEn= 0.00D+00
 Coeff-Com: -0.272D-03 0.387D-03 0.380D-02-0.248D-02-0.167D+00 0.117D+01
 Coeff:     -0.272D-03 0.387D-03 0.380D-02-0.248D-02-0.167D+00 0.117D+01
 Gap=     0.412 Goal=   None    Shift=    0.000
 RMSDP=4.22D-07 MaxDP=1.93D-05 DE=-1.35D-07 OVMax= 3.84D-05

 Cycle   7  Pass 1  IDiag  1:
 RMSU=  1.04D-07    CP:  9.77D-01  5.38D-01  1.10D+00  1.20D+00  1.24D+00
                    CP:  1.20D+00
 E= -76.4220687979650     Delta-E=       -0.000000003257 Rises=F Damp=F
 DIIS: error= 4.89D-07 at cycle   7 NSaved=   7.
 NSaved= 7 IEnMin= 7 EnMin= -76.4220687979650     IErMin= 7 ErrMin= 4.89D-07
 ErrMax= 4.89D-07  0.00D+00 EMaxC= 1.00D-01 BMatC= 1.94D-11 BMatP= 1.60D-09
 IDIUse=1 WtCom= 1.00D+00 WtEn= 0.00D+00
 Coeff-Com:  0.299D-04-0.246D-04-0.342D-03 0.149D-02 0.591D-02-0.147D+00
 Coeff-Com:  0.114D+01
 Coeff:      0.299D-04-0.246D-04-0.342D-03 0.149D-02 0.591D-02-0.147D+00
 Coeff:      0.114D+01
 Gap=     0.412 Goal=   None    Shift=    0.000
 RMSDP=4.96D-08 MaxDP=2.26D-06 DE=-3.26D-09 OVMax= 4.79D-06

 Cycle   8  Pass 1  IDiag  1:
 RMSU=  1.47D-08    CP:  9.77D-01  5.38D-01  1.10D+00  1.20D+00  1.25D+00
                    CP:  1.22D+00  1.17D+00
 E= -76.4220687980093     Delta-E=       -0.000000000044 Rises=F Damp=F
 DIIS: error= 7.63D-08 at cycle   8 NSaved=   8.
 NSaved= 8 IEnMin= 8 EnMin= -76.4220687980093     IErMin= 8 ErrMin= 7.63D-08
 ErrMax= 7.63D-08  0.00D+00 EMaxC= 1.00D-01 BMatC= 7.35D-13 BMatP= 1.94D-11
 IDIUse=1 WtCom= 1.00D+00 WtEn= 0.00D+00
 Coeff-Com:  0.866D-05-0.117D-04-0.847D-04 0.282D-03 0.381D-02-0.382D-01
 Coeff-Com:  0.106D+00 0.928D+00
 Coeff:      0.866D-05-0.117D-04-0.847D-04 0.282D-03 0.381D-02-0.382D-01
 Coeff:      0.106D+00 0.928D+00
 Gap=     0.412 Goal=   None    Shift=    0.000
 RMSDP=4.81D-09 MaxDP=1.51D-07 DE=-4.44D-11 OVMax= 4.86D-07

 SCF Done:  E(RM062X) =  -76.4220687980     A.U. after    8 cycles
            NFock=  8  Conv=0.48D-08     -V/T= 2.0030
 KE= 7.619239692415D+01 PE=-1.990562738149D+02 EE= 3.733743226693D+01
 Leave Link  502 at Sun Feb 19 11:55:19 2023, MaxMem=  6710886400 cpu:             207.3 elap:               8.7
 (Enter /data0/home/software/g16/l601.exe)
 Copying SCF densities to generalized density rwf, IOpCl= 0 IROHF=0.

 **********************************************************************

            Population analysis using the SCF density.

 **********************************************************************

 Alpha  occ. eigenvalues --  -19.62621  -1.13341  -0.60822  -0.47471  -0.39993
 Alpha virt. eigenvalues --    0.01165   0.03194   0.05491   0.05714   0.07568
 Alpha virt. eigenvalues --    0.08171   0.08678   0.09880   0.10771   0.11232
 Alpha virt. eigenvalues --    0.12348   0.13019   0.13636   0.14093   0.15104
 Alpha virt. eigenvalues --    0.16357   0.16642   0.17376   0.17486   0.18050
 Alpha virt. eigenvalues --    0.18446   0.19414   0.19796   0.20591   0.21404
 Alpha virt. eigenvalues --    0.22400   0.22835   0.23954   0.24597   0.25185
 Alpha virt. eigenvalues --    0.25399   0.25857   0.27472   0.28608   0.29225
 Alpha virt. eigenvalues --    0.30698   0.31489   0.33117   0.34777   0.37376
 Alpha virt. eigenvalues --    0.40299   0.40551   0.41360   0.45066   0.45981
 Alpha virt. eigenvalues --    0.49199   0.49726   0.51338   0.51917   0.53119
 Alpha virt. eigenvalues --    0.55850   0.56553   0.58263   0.61169   0.61468
 Alpha virt. eigenvalues --    0.62006   0.64276   0.66493   0.68914   0.69510
 Alpha virt. eigenvalues --    0.71184   0.72541   0.75149   0.78617   0.81158
 Alpha virt. eigenvalues --    0.81322   0.82190   0.86986   0.88777   0.93302
 Alpha virt. eigenvalues --    0.94302   0.95620   0.96738   0.99185   1.03732
 Alpha virt. eigenvalues --    1.04648   1.06685   1.09290   1.10293   1.11421
 Alpha virt. eigenvalues --    1.16018   1.17665   1.18183   1.19188   1.21113
 Alpha virt. eigenvalues --    1.23221   1.23425   1.25138   1.27617   1.29746
 Alpha virt. eigenvalues --    1.33363   1.33556   1.35414   1.35923   1.40432
 Alpha virt. eigenvalues --    1.41133   1.42348   1.43573   1.45366   1.45505
 Alpha virt. eigenvalues --    1.49746   1.49910   1.51604   1.54445   1.56438
 Alpha virt. eigenvalues --    1.59807   1.59952   1.66137   1.67980   1.71783
 Alpha virt. eigenvalues --    1.71881   1.72456   1.72841   1.74949   1.75578
 Alpha virt. eigenvalues --    1.78389   1.79508   1.80108   1.82904   1.85239
 Alpha virt. eigenvalues --    1.86217   1.90369   1.91629   1.92244   1.93768
 Alpha virt. eigenvalues --    1.98566   2.04657   2.06491   2.06905   2.09426
 Alpha virt. eigenvalues --    2.09653   2.12819   2.17345   2.20051   2.22567
 Alpha virt. eigenvalues --    2.26225   2.28294   2.30690   2.32797   2.36240
 Alpha virt. eigenvalues --    2.36689   2.39748   2.40745   2.43678   2.48809
 Alpha virt. eigenvalues --    2.50207   2.50729   2.53264   2.53757   2.56745
 Alpha virt. eigenvalues --    2.58003   2.58798   2.61948   2.62152   2.64733
 Alpha virt. eigenvalues --    2.65337   2.66834   2.71310   2.78322   2.81498
 Alpha virt. eigenvalues --    2.87696   2.91851   2.92012   2.94414   3.01107
 Alpha virt. eigenvalues --    3.05783   3.08226   3.14691   3.17582   3.24650
 Alpha virt. eigenvalues --    3.27623   3.45859   3.47276   3.54196   3.54970
 Alpha virt. eigenvalues --    3.64952   3.66205   3.69142   3.71016   4.33937
 Alpha virt. eigenvalues --    4.47001   4.55738   4.59312   4.73816   4.75299
 Alpha virt. eigenvalues --    4.79192   4.79244   4.91627   4.92480   4.94025
 Alpha virt. eigenvalues --    4.94926   5.04401   5.05132   5.07102   5.08347
 Alpha virt. eigenvalues --    5.09448   5.10947   5.30061   5.32390   5.33879
 Alpha virt. eigenvalues --    5.35729   5.41983   5.45983   5.46353   5.49243
 Alpha virt. eigenvalues --    5.62084   5.64809   5.72295   5.75763   5.96551
 Alpha virt. eigenvalues --    6.06655   6.08982   6.19216   6.31382   6.78396
 Alpha virt. eigenvalues --    6.80802   6.89766   6.92061   7.06449   7.12725
 Alpha virt. eigenvalues --    7.15562   7.17427   7.19818   7.29540   7.48619
 Alpha virt. eigenvalues --    7.54552   7.55522   7.73358   7.76966   7.80686
 Alpha virt. eigenvalues --    7.89286   7.91928   7.97580   8.00568   8.14639
 Alpha virt. eigenvalues --    8.34600   8.41059   8.48180   8.92208   9.75565
 Alpha virt. eigenvalues --    9.76853   9.78359   9.88966   9.92435  10.01950
 Alpha virt. eigenvalues --   10.05263  10.18150  10.18928  10.22453  10.26260
 Alpha virt. eigenvalues --   10.75876  11.73196  12.85748  13.19051  13.64969
 Alpha virt. eigenvalues --   13.98896  17.60229  49.98604  69.84467  69.96508
 Alpha virt. eigenvalues --   69.97789  70.02045  70.04506 101.68913 135.41626
          Condensed to atoms (all electrons):
               1          2          3          4          5          6
     1  C    0.070576  -0.039642  -0.014601  -0.032572   0.012718   0.003881
     2  C   -0.039642   0.043483   0.002623   0.006093  -0.008927  -0.004308
     3  C   -0.014601   0.002623   0.015562  -0.003659   0.001156  -0.001263
     4  C   -0.032572   0.006093  -0.003659   0.043348  -0.012297  -0.000435
     5  C    0.012718  -0.008927   0.001156  -0.012297   0.006329   0.001028
     6  N    0.003881  -0.004308  -0.001263  -0.000435   0.001028   0.001236
     7  H   -0.000067   0.000004  -0.000003   0.000084  -0.000018   0.000001
     8  H   -0.001378   0.001121   0.000312   0.000338  -0.000249  -0.000206
     9  H    0.000942  -0.000386  -0.000357  -0.000342   0.000105   0.000029
    10  H    0.000177   0.000037   0.000251  -0.000582   0.000126  -0.000023
    11  H   -0.000017   0.000015  -0.000021   0.000051  -0.000028   0.000000
    12  O    0.000467   0.000702   0.000024   0.000045  -0.000282  -0.000354
    13  H   -0.000074  -0.000154  -0.000002  -0.000010   0.000036   0.000058
    14  H   -0.000059   0.000047   0.000006   0.000001  -0.000010   0.000000
    15  O   -0.000302   0.000614   0.000031   0.000029  -0.000080  -0.000135
    16  H    0.000219  -0.000407  -0.000014  -0.000020   0.000050   0.000089
    17  H   -0.000026  -0.000034   0.000001  -0.000001   0.000004   0.000008
               7          8          9         10         11         12
     1  C   -0.000067  -0.001378   0.000942   0.000177  -0.000017   0.000467
     2  C    0.000004   0.001121  -0.000386   0.000037   0.000015   0.000702
     3  C   -0.000003   0.000312  -0.000357   0.000251  -0.000021   0.000024
     4  C    0.000084   0.000338  -0.000342  -0.000582   0.000051   0.000045
     5  C   -0.000018  -0.000249   0.000105   0.000126  -0.000028  -0.000282
     6  N    0.000001  -0.000206   0.000029  -0.000023   0.000000  -0.000354
     7  H    0.000001   0.000000  -0.000001  -0.000001   0.000000   0.000000
     8  H    0.000000   0.000074  -0.000012  -0.000000   0.000000   0.000023
     9  H   -0.000001  -0.000012   0.000021   0.000001  -0.000000  -0.000000
    10  H   -0.000001  -0.000000   0.000001   0.000016  -0.000001  -0.000000
    11  H    0.000000   0.000000  -0.000000  -0.000001   0.000001   0.000000
    12  O    0.000000   0.000023  -0.000000  -0.000000   0.000000   7.995371
    13  H   -0.000000  -0.000003   0.000000   0.000000  -0.000000   0.281318
    14  H   -0.000000   0.000002  -0.000000  -0.000000   0.000000   0.302261
    15  O    0.000000   0.000024  -0.000000  -0.000000   0.000000   0.022998
    16  H   -0.000000  -0.000013   0.000000   0.000000  -0.000000  -0.003736
    17  H   -0.000000   0.000001   0.000000   0.000000   0.000000  -0.001865
              13         14         15         16         17
     1  C   -0.000074  -0.000059  -0.000302   0.000219  -0.000026
     2  C   -0.000154   0.000047   0.000614  -0.000407  -0.000034
     3  C   -0.000002   0.000006   0.000031  -0.000014   0.000001
     4  C   -0.000010   0.000001   0.000029  -0.000020  -0.000001
     5  C    0.000036  -0.000010  -0.000080   0.000050   0.000004
     6  N    0.000058   0.000000  -0.000135   0.000089   0.000008
     7  H   -0.000000  -0.000000   0.000000  -0.000000  -0.000000
     8  H   -0.000003   0.000002   0.000024  -0.000013   0.000001
     9  H    0.000000  -0.000000  -0.000000   0.000000   0.000000
    10  H    0.000000  -0.000000  -0.000000   0.000000   0.000000
    11  H   -0.000000   0.000000   0.000000  -0.000000   0.000000
    12  O    0.281318   0.302261   0.022998  -0.003736  -0.001865
    13  H    0.392449  -0.015716  -0.004850   0.001722   0.004320
    14  H   -0.015716   0.438247  -0.002624   0.000714   0.000730
    15  O   -0.004850  -0.002624   0.019056  -0.005119  -0.009484
    16  H    0.001722   0.000714  -0.005119   0.002092   0.001932
[...]
 No density basis found on file   718.
 Leave Link  301 at Sun Feb 19 11:55:40 2023, MaxMem=  6710886400 cpu:               1.2 elap:               0.1
 (Enter /data0/home/software/g16/l302.exe)
 NPDir=0 NMtPBC=     1 NCelOv=     1 NCel=       1 NClECP=     1 NCelD=      1
         NCelK=      1 NCelE2=     1 NClLst=     1 CellRange=     0.0.
 One-electron integrals computed using PRISM.
 NBasis=    39 RedAO= T EigKep=  3.01D-03  NBF=    39
 NBsUse=    39 1.00D-06 EigRej= -1.00D+00 NBFU=    39
 Precomputing XC quadrature grid using
 IXCGrd= 4 IRadAn=           5 IRanWt=          -1 IRanGd=           0 AccXCQ= 0.00D+00.
 Generated NRdTot=       0 NPtTot=           0 NUsed=           0 NTot=          32
 NSgBfM=    41    41    41    41    41 MxSgAt=     3 MxSgA2=     3.
 Leave Link  302 at Sun Feb 19 11:55:40 2023, MaxMem=  6710886400 cpu:               2.2 elap:               0.1
 (Enter /data0/home/software/g16/l303.exe)
 DipDrv:  MaxL=1.
 Leave Link  303 at Sun Feb 19 11:55:40 2023, MaxMem=  6710886400 cpu:               0.4 elap:               0.0
 (Enter /data0/home/software/g16/l401.exe)
 ExpMin= 8.45D-02 ExpMax= 8.59D+03 ExpMxC= 1.30D+03 IAcc=3 IRadAn=         5 AccDes= 0.00D+00
 Harris functional with IExCor= 1009 and IRadAn=       5 diagonalized for initial guess.
 HarFok:  IExCor= 1009 AccDes= 0.00D+00 IRadAn=         5 IDoV= 1 UseB2=F ITyADJ=14
 ICtDFT=  3500011 ScaDFX=  1.000000  1.000000  1.000000  1.000000
 FoFCou: FMM=F IPFlag=           0 FMFlag=      100000 FMFlg1=           0
         NFxFlg=           0 DoJE=T BraDBF=F KetDBF=T FulRan=T
         wScrn=  0.000000 ICntrl=       500 IOpCl=  0 I1Cent=   200000004 NGrid=           0
         NMat0=    1 NMatS0=      1 NMatT0=    0 NMatD0=    1 NMtDS0=    0 NMtDT0=    0
 Symmetry not used in FoFCou.
 Harris En= -76.4166722271278    
 JPrj=0 DoOrth=F DoCkMO=F.
 Leave Link  401 at Sun Feb 19 11:55:40 2023, MaxMem=  6710886400 cpu:               2.9 elap:               0.1
 (Enter /data0/home/software/g16/l502.exe)
 Keep R1 ints in memory in canonical form, NReq=21038448.
 FoFCou: FMM=F IPFlag=           0 FMFlag=           0 FMFlg1=           0
         NFxFlg=           0 DoJE=F BraDBF=F KetDBF=F FulRan=T
         wScrn=  0.000000 ICntrl=       600 IOpCl=  0 I1Cent=           0 NGrid=           0
         NMat0=    1 NMatS0=    780 NMatT0=    0 NMatD0=    1 NMtDS0=    0 NMtDT0=    0
 Symmetry not used in FoFCou.
 Two-electron integral symmetry not used.
 Closed shell SCF:
 Using DIIS extrapolation, IDIIS=  1040.
 NGot=  6710886400 LenX=  6710576594 LenY=  6710574472
 Requested convergence on RMS density matrix=1.00D-08 within 128 cycles.
 Requested convergence on MAX density matrix=1.00D-06.
 Requested convergence on             energy=1.00D-06.
 No special actions if energy rises.
 Integral accuracy reduced to 1.0D-05 until final iterations.

 Cycle   1  Pass 0  IDiag  1:
 E= -76.3462908523769    
 DIIS: error= 7.03D-02 at cycle   1 NSaved=   1.
 NSaved= 1 IEnMin= 1 EnMin= -76.3462908523769     IErMin= 1 ErrMin= 7.03D-02
 ErrMax= 7.03D-02  0.00D+00 EMaxC= 1.00D-01 BMatC= 1.21D-01 BMatP= 1.21D-01
 IDIUse=3 WtCom= 2.97D-01 WtEn= 7.03D-01
 Coeff-Com:  0.100D+01
 Coeff-En:   0.100D+01
 Coeff:      0.100D+01
 Gap=     0.325 Goal=   None    Shift=    0.000
 GapD=    0.325 DampG=1.000 DampE=0.500 DampFc=0.5000 IDamp=-1.
 Damping current iteration by 5.00D-01
 RMSDP=7.92D-03 MaxDP=1.01D-01              OVMax= 1.68D-01

 Cycle   2  Pass 0  IDiag  1:
 E= -76.3778266551903     Delta-E=       -0.031535802813 Rises=F Damp=T
 DIIS: error= 1.15D-02 at cycle   2 NSaved=   2.
 NSaved= 2 IEnMin= 2 EnMin= -76.3778266551903     IErMin= 2 ErrMin= 1.15D-02
 ErrMax= 1.15D-02  0.00D+00 EMaxC= 1.00D-01 BMatC= 4.81D-03 BMatP= 1.21D-01
 IDIUse=3 WtCom= 8.85D-01 WtEn= 1.15D-01
 Coeff-Com:  0.815D-01 0.918D+00
 Coeff-En:   0.186D+00 0.814D+00
 Coeff:      0.935D-01 0.906D+00
 Gap=     0.458 Goal=   None    Shift=    0.000
 RMSDP=9.39D-04 MaxDP=1.39D-02 DE=-3.15D-02 OVMax= 1.00D-01

 Cycle   3  Pass 0  IDiag  1:
 E= -76.4217672871458     Delta-E=       -0.043940631956 Rises=F Damp=F
 DIIS: error= 2.16D-03 at cycle   3 NSaved=   3.
 NSaved= 3 IEnMin= 3 EnMin= -76.4217672871458     IErMin= 3 ErrMin= 2.16D-03
 ErrMax= 2.16D-03  0.00D+00 EMaxC= 1.00D-01 BMatC= 9.04D-05 BMatP= 4.81D-03
 IDIUse=3 WtCom= 9.78D-01 WtEn= 2.16D-02
 Coeff-Com: -0.199D-01 0.392D-01 0.981D+00
 Coeff-En:   0.000D+00 0.000D+00 0.100D+01
 Coeff:     -0.195D-01 0.384D-01 0.981D+00
 Gap=     0.462 Goal=   None    Shift=    0.000
 RMSDP=1.14D-04 MaxDP=9.82D-04 DE=-4.39D-02 OVMax= 3.30D-03

 Cycle   4  Pass 0  IDiag  1:
 E= -76.4218442993212     Delta-E=       -0.000077012175 Rises=F Damp=F
 DIIS: error= 4.10D-04 at cycle   4 NSaved=   4.
 NSaved= 4 IEnMin= 4 EnMin= -76.4218442993212     IErMin= 4 ErrMin= 4.10D-04
 ErrMax= 4.10D-04  0.00D+00 EMaxC= 1.00D-01 BMatC= 3.25D-06 BMatP= 9.04D-05
 IDIUse=3 WtCom= 9.96D-01 WtEn= 4.10D-03
 Coeff-Com: -0.187D-02-0.222D-02 0.162D+00 0.842D+00
 Coeff-En:   0.000D+00 0.000D+00 0.000D+00 0.100D+01
 Coeff:     -0.186D-02-0.221D-02 0.161D+00 0.843D+00
 Gap=     0.463 Goal=   None    Shift=    0.000
 RMSDP=2.20D-05 MaxDP=3.53D-04 DE=-7.70D-05 OVMax= 5.31D-04

 Cycle   5  Pass 0  IDiag  1:
 E= -76.4218463026536     Delta-E=       -0.000002003332 Rises=F Damp=F
 DIIS: error= 8.79D-05 at cycle   5 NSaved=   5.
 NSaved= 5 IEnMin= 5 EnMin= -76.4218463026536     IErMin= 5 ErrMin= 8.79D-05
 ErrMax= 8.79D-05  0.00D+00 EMaxC= 1.00D-01 BMatC= 8.15D-08 BMatP= 3.25D-06
 IDIUse=1 WtCom= 1.00D+00 WtEn= 0.00D+00
 Coeff-Com:  0.117D-02-0.178D-02-0.364D-01-0.638D-01 0.110D+01
 Coeff:      0.117D-02-0.178D-02-0.364D-01-0.638D-01 0.110D+01
 Gap=     0.463 Goal=   None    Shift=    0.000
 RMSDP=8.88D-06 MaxDP=1.02D-04 DE=-2.00D-06 OVMax= 1.99D-04

 Initial convergence to 1.0D-05 achieved.  Increase integral accuracy.
 Cycle   6  Pass 1  IDiag  1:
 E= -76.4218415686486     Delta-E=        0.000004734005 Rises=F Damp=F
 DIIS: error= 1.89D-05 at cycle   1 NSaved=   1.
 NSaved= 1 IEnMin= 1 EnMin= -76.4218415686486     IErMin= 1 ErrMin= 1.89D-05
 ErrMax= 1.89D-05  0.00D+00 EMaxC= 1.00D-01 BMatC= 1.75D-08 BMatP= 1.75D-08
 IDIUse=1 WtCom= 1.00D+00 WtEn= 0.00D+00
 Coeff-Com:  0.100D+01
 Coeff:      0.100D+01
 Gap=     0.463 Goal=   None    Shift=    0.000
 RMSDP=8.88D-06 MaxDP=1.02D-04 DE= 4.73D-06 OVMax= 4.58D-05

 Cycle   7  Pass 1  IDiag  1:
 E= -76.4218415839258     Delta-E=       -0.000000015277 Rises=F Damp=F
 DIIS: error= 1.21D-05 at cycle   2 NSaved=   2.
 NSaved= 2 IEnMin= 2 EnMin= -76.4218415839258     IErMin= 2 ErrMin= 1.21D-05
 ErrMax= 1.21D-05  0.00D+00 EMaxC= 1.00D-01 BMatC= 2.05D-09 BMatP= 1.75D-08
 IDIUse=1 WtCom= 1.00D+00 WtEn= 0.00D+00
 Coeff-Com:  0.106D+00 0.894D+00
 Coeff:      0.106D+00 0.894D+00
 Gap=     0.463 Goal=   None    Shift=    0.000
 RMSDP=9.90D-07 MaxDP=1.39D-05 DE=-1.53D-08 OVMax= 2.55D-05

 Cycle   8  Pass 1  IDiag  1:
 E= -76.4218415844584     Delta-E=       -0.000000000533 Rises=F Damp=F
 DIIS: error= 7.98D-06 at cycle   3 NSaved=   3.
 NSaved= 3 IEnMin= 3 EnMin= -76.4218415844584     IErMin= 3 ErrMin= 7.98D-06
 ErrMax= 7.98D-06  0.00D+00 EMaxC= 1.00D-01 BMatC= 1.69D-09 BMatP= 2.05D-09
 IDIUse=1 WtCom= 1.00D+00 WtEn= 0.00D+00
 Coeff-Com: -0.534D-01 0.487D+00 0.567D+00
 Coeff:     -0.534D-01 0.487D+00 0.567D+00
 Gap=     0.463 Goal=   None    Shift=    0.000
 RMSDP=4.78D-07 MaxDP=6.35D-06 DE=-5.33D-10 OVMax= 1.05D-05

 Cycle   9  Pass 1  IDiag  1:
 E= -76.4218415855733     Delta-E=       -0.000000001115 Rises=F Damp=F
 DIIS: error= 5.93D-07 at cycle   4 NSaved=   4.
 NSaved= 4 IEnMin= 4 EnMin= -76.4218415855733     IErMin= 4 ErrMin= 5.93D-07
 ErrMax= 5.93D-07  0.00D+00 EMaxC= 1.00D-01 BMatC= 4.75D-12 BMatP= 1.69D-09
 IDIUse=1 WtCom= 1.00D+00 WtEn= 0.00D+00
 Coeff-Com:  0.149D-02-0.609D-01-0.486D-01 0.111D+01
 Coeff:      0.149D-02-0.609D-01-0.486D-01 0.111D+01
 Gap=     0.463 Goal=   None    Shift=    0.000
 RMSDP=1.09D-07 MaxDP=6.97D-07 DE=-1.11D-09 OVMax= 2.01D-06

 Cycle  10  Pass 1  IDiag  1:
 E= -76.4218415855831     Delta-E=       -0.000000000010 Rises=F Damp=F
 DIIS: error= 7.85D-08 at cycle   5 NSaved=   5.
 NSaved= 5 IEnMin= 5 EnMin= -76.4218415855831     IErMin= 5 ErrMin= 7.85D-08
 ErrMax= 7.85D-08  0.00D+00 EMaxC= 1.00D-01 BMatC= 2.83D-13 BMatP= 4.75D-12
 IDIUse=1 WtCom= 1.00D+00 WtEn= 0.00D+00
 Coeff-Com:  0.283D-02-0.333D-01-0.346D-01 0.160D+00 0.905D+00
 Coeff:      0.283D-02-0.333D-01-0.346D-01 0.160D+00 0.905D+00
 Gap=     0.463 Goal=   None    Shift=    0.000
 RMSDP=2.74D-08 MaxDP=2.10D-07 DE=-9.73D-12 OVMax= 4.61D-07

 Cycle  11  Pass 1  IDiag  1:
 E= -76.4218415855836     Delta-E=       -0.000000000001 Rises=F Damp=F
 DIIS: error= 1.60D-08 at cycle   6 NSaved=   6.
 NSaved= 6 IEnMin= 6 EnMin= -76.4218415855836     IErMin= 6 ErrMin= 1.60D-08
 ErrMax= 1.60D-08  0.00D+00 EMaxC= 1.00D-01 BMatC= 7.41D-15 BMatP= 2.83D-13
 IDIUse=1 WtCom= 1.00D+00 WtEn= 0.00D+00
 Coeff-Com:  0.921D-04 0.429D-03 0.246D-03-0.345D-01-0.999D-02 0.104D+01
 Coeff:      0.921D-04 0.429D-03 0.246D-03-0.345D-01-0.999D-02 0.104D+01
 Gap=     0.463 Goal=   None    Shift=    0.000
 RMSDP=6.10D-09 MaxDP=4.91D-08 DE=-5.40D-13 OVMax= 1.22D-07

 SCF Done:  E(RM062X) =  -76.4218415856     A.U. after   11 cycles
            NFock= 11  Conv=0.61D-08     -V/T= 2.0029
 KE= 7.620156696229D+01 PE=-1.990897891686D+02 EE= 3.734810151462D+01
 Leave Link  502 at Sun Feb 19 11:55:41 2023, MaxMem=  6710886400 cpu:               8.6 elap:               0.4
 (Enter /data0/home/software/g16/l601.exe)
 Copying SCF densities to generalized density rwf, IOpCl= 0 IROHF=0.

 **********************************************************************

            Population analysis using the SCF density.

 **********************************************************************

 Alpha  occ. eigenvalues --  -19.62589  -1.13433  -0.60773  -0.47574  -0.40003
 Alpha virt. eigenvalues --    0.06296   0.13351   0.17396   0.17943   0.18928
 Alpha virt. eigenvalues --    0.23301   0.51214   0.53564   0.97930   1.00192
 Alpha virt. eigenvalues --    1.06031   1.18262   1.20028   1.32315   1.33813
 Alpha virt. eigenvalues --    1.70036   1.74268   1.75696   2.07849   2.09462
 Alpha virt. eigenvalues --    2.35893   2.41256   2.54635   2.88530   3.01507
 Alpha virt. eigenvalues --    5.05681   5.48463   5.92804   6.78333   6.80174
 Alpha virt. eigenvalues --    6.87197   6.91517   7.09384  49.95951
          Condensed to atoms (all electrons):
              15         16         17
    15  O    7.914691   0.318973   0.321645
    16  H    0.318973   0.426548  -0.024376
    17  H    0.321645  -0.024376   0.426278
 Mulliken charges:
               1
     1  C    0.000000
     2  C    0.000000
     3  C    0.000000
     4  C    0.000000
     5  C    0.000000
     6  N    0.000000
     7  H    0.000000
     8  H    0.000000
     9  H    0.000000
    10  H    0.000000
    11  H    0.000000
    12  O    0.000000
    13  H    0.000000
    14  H    0.000000
    15  O   -0.555308
    16  H    0.278855
    17  H    0.276453
 Sum of Mulliken charges =   0.00000
 Mulliken charges with hydrogens summed into heavy atoms:
               1
     1  C    0.000000
     2  C    0.000000
     3  C    0.000000
     4  C    0.000000
     5  C    0.000000
     6  N    0.000000
    12  O    0.000000
    15  O    0.000000
         Mulliken charges condensed to fragments:
      1      0.000000
      2      0.000000
      3      0.000000
 Electronic spatial extent (au):  <R**2>=          14626.2018
 Charge=              0.0000 electrons
 Dipole moment (field-independent basis, Debye):
    X=              0.3287    Y=              0.3828    Z=              2.0585  Tot=              2.1195
 Quadrupole moment (field-independent basis, Debye-Ang):
   XX=             -1.9978   YY=              9.0647   ZZ=              1.5952
   XY=             10.3741   XZ=             16.3329   YZ=             38.5980
 Traceless Quadrupole moment (field-independent basis, Debye-Ang):
   XX=             -4.8852   YY=              6.1773   ZZ=             -1.2922
   XY=             10.3741   XZ=             16.3329   YZ=             38.5980
 Octapole moment (field-independent basis, Debye-Ang**2):
  XXX=           -104.3621  YYY=            108.8481  ZZZ=            -11.7046  XYY=            232.6937
  XXY=              5.8532  XXZ=            116.5797  XZZ=             12.8200  YZZ=             29.0630
  YYZ=            714.8658  XYZ=            309.0010
 Hexadecapole moment (field-independent basis, Debye-Ang**3):
 XXXX=          -1910.6852 YYYY=           -871.1478 ZZZZ=            -74.4972 XXXY=          -1530.5078
 XXXZ=            728.1445 YYYX=           4335.6702 YYYZ=          13076.3981 ZZZX=            -90.1925
 ZZZY=           -222.1947 XXYY=            605.2681 XXZZ=             76.8665 YYZZ=            512.2833
 XXYZ=           2230.4933 YYXZ=           5777.1239 ZZXY=            239.9470
 N-N= 9.118279106086D+00 E-N=-1.990897892667D+02  KE= 7.620156696229D+01
 No NMR shielding tensors so no spin-rotation constants.
 Leave Link  601 at Sun Feb 19 11:55:41 2023, MaxMem=  6710886400 cpu:               1.8 elap:               0.1
 (Enter /data0/home/software/g16/l122.exe)
 CPIOFr:  IOpCl= 0 IRwI=-1 IRwCP=  731 ICalc=  6 LCPTot=      113933 Len1MO=      297342 IndFrg=     2195327
 Restoring MOs from calculation   1 to rwf.
 CPIOFr:  IOpCl= 0 IRwI=-2 IRwCP=  731 ICalc=  0 LCPTot=      113933 Len1MO=      297342 IndFrg=      411275
 Counterpoise corrected energy =    -401.095471306716
                   BSSE energy =       0.001124675014
              sum of fragments =    -401.088318291647
           complexation energy =      -5.19 kcal/mole (raw)
           complexation energy =      -4.49 kcal/mole (corrected)
 Leave Link  122 at Sun Feb 19 11:55:41 2023, MaxMem=  6710886400 cpu:               0.2 elap:               0.0
 (Enter /data0/home/software/g16/l9999.exe)
 1\1\GINC-LOCALHOST\SP\RM062X\6-311+G(2d,p)\C5H9N1O2\WUHANYU\19-Feb-202
 3\0\\#p M062X/6-311+G(2d,p) nosymm em=GD3 counterpoise=3\\Title Card R
 equired\\0,1\C,0,4.763894,14.632191,4.471475\C,0,3.402913,14.360412,4.
 668052\C,0,3.001612,13.036541,4.826502\C,0,3.958842,12.023173,4.786155
 \C,0,5.297817,12.376205,4.58632\N,0,5.689445,13.655717,4.430887\H,0,1.
 950618,12.793298,4.980852\H,0,5.13602,15.660966,4.342716\H,0,2.680972,
 15.171535,4.696166\H,0,3.67468,10.982333,4.907132\H,0,6.094849,11.6247
 74,4.546504\O,0,9.648108,16.750654,1.105737\H,0,8.99144,17.467037,1.20
 7307\H,0,9.152977,16.023055,0.730977\O,0,7.683302,18.597301,1.789101\H
 ,0,7.441129,18.044428,2.55279\H,0,8.107622,19.360382,2.182124\\Version
 =ES64L-G16RevA.03\HF=-76.4218416\RMSD=6.100e-09\Dipole=-1.7200067,0.06
 74466,0.8362904\Quadrupole=-37.622385,24.0639396,13.5584454,-46.198420
 9,1.3045577,27.482043\PG=C01 [X(C5H9N1O2)]\\@


                                                                                    A
                                                                                  AA
                                                                                 AAA
                                                                                AAAA
                                                                               AAAAA
                                                                              AAAAAA   KKKKKKKK
                                                                             AAAAAAA   KKKKKKKK
                                                                            AAAAAAAA   KKKKKKKK
                                       ZZZZZZZZZZZZZZZZZZZZ                AAAA  AAA   KKKKKKKK
                                       ZZZZZZZZZZZZZZZZZZZ                AAAA   AAA   KKKKKKKK          K
                                       ZZZZZZZZZZZZZZZZZZ                AAAA    AAA   KKKKKKKK         KKK
                                       ZZZZZZZZZZZZZZZZZ                AAAA     AAA   KKKKKKKK        KKKKK
                                       ZZZZZZZZZZZZZZZZ                AAAA      AAA   KKKKKKKK       KKKKKKK
                                                ZZZZZZ                AAAA       AAA   KKKKKKKK      KKKKKKK
                                               ZZZZZZ                AAAA        AAA   KKKKKKKK     KKKKKKK
                                              ZZZZZZ                AAAA         AAA   KKKKKKKK    KKKKKKK
                                             ZZZZZZ                AAAA          AAA   KKKKKKKK   KKKKKKK
                                            ZZZZZZ                AAAAAAAAAAAAAAAAAA   KKKKKKKK  KKKKKKK
                                           ZZZZZZ                AAAAAAAAAAAAAAAAAAA   KKKKKKKK KKKKKKK
                                          ZZZZZZ                AAAAAAAAAAAAAAAAAAAA   KKKKKKKKKKKKKKK
                                         ZZZZZZ                AAAAAAAAAAAAAAAAAAAAA   KKKKKKKKKKKKKK
                                        ZZZZZZ                AAAAAA        AAAAAAAA   KKKKKKKKKKKKK
                                       ZZZZZZ                AAAAAA         AAAAAAAA   KKKKKKKKKKKK
                                      ZZZZZZ                AAAAAA          AAAAAAAA   KKKKKKKKKKK
                                     ZZZZZZ                AAAAAA           AAAAAAAA   KKKKKKKKKKKK
                                    ZZZZZZ                AAAAAA            AAAAAAAA   KKKKKKKKKKKKK
                                   ZZZZZZ                AAAAAA             AAAAAAAA   KKKKKKKKKKKKKK
                                  ZZZZZZ                AAAAAA              AAAAAAAA   KKKKKKKKKKKKKKK
                                 ZZZZZZ                AAAAAA               AAAAAAAA   KKKKK KKKKKKKKKK
                                ZZZZZZ                AAAAAA                AAAAAAAA   KKKKK  KKKKKKKKKK
                               ZZZZZZ                AAAAAA                            KKKKK   KKKKKKKKKK
                              ZZZZZZ                AAAAAA                             KKKKK    KKKKKKKKKK
                             ZZZZZZ                                                    KKKKK     KKKKKKKKKK
                            ZZZZZZ                                                     KKKKK      KKKKKKKKKK
                           ZZZZZZ                                                      KKKKK       KKKKKKKKKK
                          ZZZZZZ                                                       KKKKK        KKKKKKKKKK
                         ZZZZZZZZZZZZZZZZZZZZZZZZZZZZZZZZZZZZZZZZ                      KKKKK         KKKKKKKKKK
                        ZZZZZZZZZZZZZZZZZZZZZZZZZZZZZZZZZZZZZZZZZ                      KKKKK          KKKKKKKKKK
                       ZZZZZZZZZZZZZZZZZZZZZZZZZZZZZZZZZZZZZZZZZZ                      KKKKK           KKKKKKKKKK
                       ZZZZZZZZZZZZZZZZZZZZZZZZZZZZZZZZZZZZZZZZZZ                      KKKKK            KKKKKKKKKK
                       ZZZZZZZZZZZZZZZZZZZZZZZZZZZZZZZZZZZZZZZZZZ                      KKKKK             KKKKKKKKKK
                       ZZZZZZZZZZZZZZZZZZZZZZZZZZZZZZZZZZZZZZZZZZ                      KKKKK              KKKKKKKKKK
                       ZZZZZZZZZZZZZZZZZZZZZZZZZZZZZZZZZZZZZZZZZZ                      KKKKK               KKKKKKKKKK
                       ZZZZZZZZZZZZZZZZZZZZZZZZZZZZZZZZZZZZZZZZZZ                      KKKKK                KKKKKKKKKK
                       ZZZZZZZZZZZZZZZZZZZZZZZZZZZZZZZZZZZZZZZZZZ                      KKKKK
                                                                                       KKKKK
                                                                                          (J.P.)
 Job cpu time:       0 days  0 hours 22 minutes 15.2 seconds.
 Elapsed time:       0 days  0 hours  0 minutes 59.4 seconds.
 File lengths (MBytes):  RWF=     66 Int=      0 D2E=      0 Chk=     22 Scr=      1
 Normal termination of Gaussian 16 at Sun Feb 19 11:55:41 2023.
