 Entering Gaussian System, Link 0=g16
 Initial command:
 /data0/home/wuhanyu/software/g16/l1.exe "/data0/home/wuhanyu/software/g16/scratch/Gau-2500485.inp" -scrdir="/data0/home/wuhanyu/software/g16/scratch/"
 Default is to use a total of  22 processors:
                               22 via shared-memory
                                1 via Linda
 Entering Link 1 = /data0/home/wuhanyu/software/g16/l1.exe PID=   2500486.
  
 Copyright (c) 1988,1990,1992,1993,1995,1998,2003,2009,2016,
            Gaussian, Inc.  All Rights Reserved.
  
 This is part of the Gaussian(R) 16 program.  It is based on
 the Gaussian(R) 09 system (copyright 2009, Gaussian, Inc.),
 the Gaussian(R) 03 system (copyright 2003, Gaussian, Inc.),
 the Gaussian(R) 98 system (copyright 1998, Gaussian, Inc.),
 the Gaussian(R) 94 system (copyright 1995, Gaussian, Inc.),
 the Gaussian 92(TM) system (copyright 1992, Gaussian, Inc.),
 the Gaussian 90(TM) system (copyright 1990, Gaussian, Inc.),
 the Gaussian 88(TM) system (copyright 1988, Gaussian, Inc.),
 the Gaussian 86(TM) system (copyright 1986, Carnegie Mellon
 University), and the Gaussian 82(TM) system (copyright 1983,
 Carnegie Mellon University). Gaussian is a federally registered
 trademark of Gaussian, Inc.
  
 This software contains proprietary and confidential information,
 including trade secrets, belonging to Gaussian, Inc.
  
 This software is provided under written license and may be
 used, copied, transmitted, or stored only in accord with that
 written license.
  
 The following legend is applicable only to US Government
 contracts under FAR:
  
                    RESTRICTED RIGHTS LEGEND
  
 Use, reproduction and disclosure by the US Government is
 subject to restrictions as set forth in subparagraphs (a)
 and (c) of the Commercial Computer Software - Restricted
 Rights clause in FAR 52.227-19.
  
 Gaussian, Inc.
 340 Quinnipiac St., Bldg. 40, Wallingford CT 06492
  
  
 ---------------------------------------------------------------
 Warning -- This program may not be used in any manner that
 competes with the business of Gaussian, Inc. or will provide
 assistance to any competitor of Gaussian, Inc.  The licensee
 of this program is prohibited from giving any competitor of
 Gaussian, Inc. access to this program.  By using this program,
 the user acknowledges that Gaussian, Inc. is engaged in the
 business of creating and licensing software in the field of
 computational chemistry and represents and warrants to the
 licensee that it is not a competitor of Gaussian, Inc. and that
 it will not use this program in any manner prohibited above.
 ---------------------------------------------------------------
  

 Cite this work as:
 Gaussian 16, Revision A.03,
 M. J. Frisch, G. W. Trucks, H. B. Schlegel, G. E. Scuseria, 
 M. A. Robb, J. R. Cheeseman, G. Scalmani, V. Barone, 
 G. A. Petersson, H. Nakatsuji, X. Li, M. Caricato, A. V. Marenich, 
 J. Bloino, B. G. Janesko, R. Gomperts, B. Mennucci, H. P. Hratchian, 
 J. V. Ortiz, A. F. Izmaylov, J. L. Sonnenberg, D. Williams-Young, 
 F. Ding, F. Lipparini, F. Egidi, J. Goings, B. Peng, A. Petrone, 
 T. Henderson, D. Ranasinghe, V. G. Zakrzewski, J. Gao, N. Rega, 
 G. Zheng, W. Liang, M. Hada, M. Ehara, K. Toyota, R. Fukuda, 
 J. Hasegawa, M. Ishida, T. Nakajima, Y. Honda, O. Kitao, H. Nakai, 
 T. Vreven, K. Throssell, J. A. Montgomery, Jr., J. E. Peralta, 
 F. Ogliaro, M. J. Bearpark, J. J. Heyd, E. N. Brothers, K. N. Kudin, 
 V. N. Staroverov, T. A. Keith, R. Kobayashi, J. Normand, 
 K. Raghavachari, A. P. Rendell, J. C. Burant, S. S. Iyengar, 
 J. Tomasi, M. Cossi, J. M. Millam, M. Klene, C. Adamo, R. Cammi, 
 J. W. Ochterski, R. L. Martin, K. Morokuma, O. Farkas, 
 J. B. Foresman, and D. J. Fox, Gaussian, Inc., Wallingford CT, 2016.
 
 ******************************************
 Gaussian 16:  ES64L-G16RevA.03 25-Dec-2016
                18-May-2022 
 ******************************************
 %chk=MImBA.chk
 %mem=200GB
 %nprocshared=22
 Will use up to   22 processors via shared memory.
 --------------------------------------
 #p opt freq b3lyp/6-311g(d,p) em=gd3bj
 --------------------------------------
 1/18=20,19=15,26=3,38=1/1,3;
 2/9=110,12=2,17=6,18=5,40=1/2;
 3/5=4,6=6,7=101,11=2,25=1,30=1,71=1,74=-5,124=41/1,2,3;
 4//1;
 5/5=2,38=5/2;
 6/7=2,8=2,9=2,10=2,28=1/1;
 7//1,2,3,16;
 1/18=20,19=15,26=3/3(2);
 2/9=110/2;
 99//99;
 2/9=110/2;
 3/5=4,6=6,7=101,11=2,25=1,30=1,71=1,74=-5,124=41/1,2,3;
 4/5=5,16=3,69=1/1;
 5/5=2,38=5/2;
 7//1,2,3,16;
 1/18=20,19=15,26=3/3(-5);
 2/9=110/2;
 6/7=2,8=2,9=2,10=2,19=2,28=1/1;
 99/9=1/99;
 Leave Link    1 at Wed May 18 10:35:55 2022, MaxMem= 26843545600 cpu:               0.7 elap:               0.0
 (Enter /data0/home/wuhanyu/software/g16/l101.exe)
 -------------------
 Title Card Required
 -------------------
 Symbolic Z-matrix:
 Charge =  0 Multiplicity = 1
 C                    -1.15827  -1.51081   0.114 
 C                     0.24336  -1.50443   0.13128 
 C                    -0.49872   0.6536    0.06133 
 N                    -1.60351  -0.19284   0.07143 
 H                    -1.8563   -2.3469    0.12888 
 H                     0.89134  -2.37385   0.16379 
 H                    -0.61218   1.73644   0.02936 
 C                    -3.00962   0.23476   0.04158 
 H                    -3.10165   1.19117   0.51245 
 H                    -3.33993   0.30387  -0.97381 
 H                    -3.6108   -0.4795    0.56438 
 N                     0.66156  -0.13226   0.09795 
 C                     2.04777   0.35693   0.10145 
 H                     2.37797   0.48582   1.11104 
 H                     2.09648   1.29433  -0.41216 
 C                     2.95465  -0.66525  -0.60871 
 H                     3.48887  -1.23613   0.12177 
 H                     2.35471  -1.32079  -1.20472 
 C                     3.95612   0.07772  -1.5124 
 H                     4.94442  -0.28687  -1.32472 
 H                     3.91675   1.12608  -1.30193 
 C                     3.59183  -0.16342  -2.98913 
 O                     2.78758   0.65658  -3.60083 
 O                     4.08931  -1.18648  -3.62099 
 
 ITRead=  0  0  0  0  0  0  0  0  0  0  0  0  0  0  0  0  0  0  0  0
 ITRead=  0  0  0  0
 MicOpt= -1 -1 -1 -1 -1 -1 -1 -1 -1 -1 -1 -1 -1 -1 -1 -1 -1 -1 -1 -1
 MicOpt= -1 -1 -1 -1
 NAtoms=     24 NQM=       24 NQMF=       0 NMMI=      0 NMMIF=      0
                NMic=       0 NMicF=      0.
                    Isotopes and Nuclear Properties:
 (Nuclear quadrupole moments (NQMom) in fm**2, nuclear magnetic moments (NMagM)
  in nuclear magnetons)

  Atom         1           2           3           4           5           6           7           8           9          10
 IAtWgt=          12          12          12          14           1           1           1          12           1           1
 AtmWgt=  12.0000000  12.0000000  12.0000000  14.0030740   1.0078250   1.0078250   1.0078250  12.0000000   1.0078250   1.0078250
 NucSpn=           0           0           0           2           1           1           1           0           1           1
 AtZEff=  -0.0000000  -0.0000000  -0.0000000  -0.0000000  -0.0000000  -0.0000000  -0.0000000  -0.0000000  -0.0000000  -0.0000000
 NQMom=    0.0000000   0.0000000   0.0000000   2.0440000   0.0000000   0.0000000   0.0000000   0.0000000   0.0000000   0.0000000
 NMagM=    0.0000000   0.0000000   0.0000000   0.4037610   2.7928460   2.7928460   2.7928460   0.0000000   2.7928460   2.7928460
 AtZNuc=   6.0000000   6.0000000   6.0000000   7.0000000   1.0000000   1.0000000   1.0000000   6.0000000   1.0000000   1.0000000

  Atom        11          12          13          14          15          16          17          18          19          20
 IAtWgt=           1          14          12           1           1          12           1           1          12           1
 AtmWgt=   1.0078250  14.0030740  12.0000000   1.0078250   1.0078250  12.0000000   1.0078250   1.0078250  12.0000000   1.0078250
 NucSpn=           1           2           0           1           1           0           1           1           0           1
 AtZEff=  -0.0000000  -0.0000000  -0.0000000  -0.0000000  -0.0000000  -0.0000000  -0.0000000  -0.0000000  -0.0000000  -0.0000000
 NQMom=    0.0000000   2.0440000   0.0000000   0.0000000   0.0000000   0.0000000   0.0000000   0.0000000   0.0000000   0.0000000
 NMagM=    2.7928460   0.4037610   0.0000000   2.7928460   2.7928460   0.0000000   2.7928460   2.7928460   0.0000000   2.7928460
 AtZNuc=   1.0000000   7.0000000   6.0000000   1.0000000   1.0000000   6.0000000   1.0000000   1.0000000   6.0000000   1.0000000

  Atom        21          22          23          24
 IAtWgt=           1          12          16          16
 AtmWgt=   1.0078250  12.0000000  15.9949146  15.9949146
 NucSpn=           1           0           0           0
 AtZEff=  -0.0000000  -0.0000000  -0.0000000  -0.0000000
 NQMom=    0.0000000   0.0000000   0.0000000   0.0000000
 NMagM=    2.7928460   0.0000000   0.0000000   0.0000000
 AtZNuc=   1.0000000   6.0000000   8.0000000   8.0000000
 Leave Link  101 at Wed May 18 10:35:56 2022, MaxMem= 26843545600 cpu:               7.2 elap:               0.3
 (Enter /data0/home/wuhanyu/software/g16/l103.exe)

 GradGradGradGradGradGradGradGradGradGradGradGradGradGradGradGradGradGrad
 Berny optimization.
 Initialization pass.
                           ----------------------------
                           !    Initial Parameters    !
                           ! (Angstroms and Degrees)  !
 --------------------------                            --------------------------
 ! Name  Definition              Value          Derivative Info.                !
 --------------------------------------------------------------------------------
 ! R1    R(1,2)                  1.4018         estimate D2E/DX2                !
 ! R2    R(1,4)                  1.3918         estimate D2E/DX2                !
 ! R3    R(1,5)                  1.0893         estimate D2E/DX2                !
 ! R4    R(2,6)                  1.0848         estimate D2E/DX2                !
 ! R5    R(2,12)                 1.4349         estimate D2E/DX2                !
 ! R6    R(3,4)                  1.3918         estimate D2E/DX2                !
 ! R7    R(3,7)                  1.0892         estimate D2E/DX2                !
 ! R8    R(3,12)                 1.4018         estimate D2E/DX2                !
 ! R9    R(4,8)                  1.47           estimate D2E/DX2                !
 ! R10   R(8,9)                  1.07           estimate D2E/DX2                !
 ! R11   R(8,10)                 1.07           estimate D2E/DX2                !
 ! R12   R(8,11)                 1.07           estimate D2E/DX2                !
 ! R13   R(12,13)                1.47           estimate D2E/DX2                !
 ! R14   R(13,14)                1.07           estimate D2E/DX2                !
 ! R15   R(13,15)                1.07           estimate D2E/DX2                !
 ! R16   R(13,16)                1.54           estimate D2E/DX2                !
 ! R17   R(16,17)                1.07           estimate D2E/DX2                !
 ! R18   R(16,18)                1.07           estimate D2E/DX2                !
 ! R19   R(16,19)                1.54           estimate D2E/DX2                !
 ! R20   R(19,20)                1.07           estimate D2E/DX2                !
 ! R21   R(19,21)                1.07           estimate D2E/DX2                !
 ! R22   R(19,22)                1.54           estimate D2E/DX2                !
 ! R23   R(22,23)                1.3013         estimate D2E/DX2                !
 ! R24   R(22,24)                1.3013         estimate D2E/DX2                !
 ! A1    A(2,1,4)              108.4177         estimate D2E/DX2                !
 ! A2    A(2,1,5)              130.0976         estimate D2E/DX2                !
 ! A3    A(4,1,5)              121.4847         estimate D2E/DX2                !
 ! A4    A(1,2,6)              126.4408         estimate D2E/DX2                !
 ! A5    A(1,2,12)             107.1873         estimate D2E/DX2                !
 ! A6    A(6,2,12)             126.372          estimate D2E/DX2                !
 ! A7    A(4,3,7)              121.4742         estimate D2E/DX2                !
 ! A8    A(4,3,12)             108.4137         estimate D2E/DX2                !
 ! A9    A(7,3,12)             130.1121         estimate D2E/DX2                !
 ! A10   A(1,4,3)              108.7956         estimate D2E/DX2                !
 ! A11   A(1,4,8)              125.5966         estimate D2E/DX2                !
 ! A12   A(3,4,8)              125.6078         estimate D2E/DX2                !
 ! A13   A(4,8,9)              109.4712         estimate D2E/DX2                !
 ! A14   A(4,8,10)             109.4712         estimate D2E/DX2                !
 ! A15   A(4,8,11)             109.4712         estimate D2E/DX2                !
 ! A16   A(9,8,10)             109.4713         estimate D2E/DX2                !
 ! A17   A(9,8,11)             109.4712         estimate D2E/DX2                !
 ! A18   A(10,8,11)            109.4712         estimate D2E/DX2                !
 ! A19   A(2,12,3)             107.1858         estimate D2E/DX2                !
 ! A20   A(2,12,13)            126.3724         estimate D2E/DX2                !
 ! A21   A(3,12,13)            126.4419         estimate D2E/DX2                !
 ! A22   A(12,13,14)           109.4712         estimate D2E/DX2                !
 ! A23   A(12,13,15)           109.4712         estimate D2E/DX2                !
 ! A24   A(12,13,16)           109.4712         estimate D2E/DX2                !
 ! A25   A(14,13,15)           109.4712         estimate D2E/DX2                !
 ! A26   A(14,13,16)           109.4713         estimate D2E/DX2                !
 ! A27   A(15,13,16)           109.4712         estimate D2E/DX2                !
 ! A28   A(13,16,17)           109.4712         estimate D2E/DX2                !
 ! A29   A(13,16,18)           109.4712         estimate D2E/DX2                !
 ! A30   A(13,16,19)           109.4712         estimate D2E/DX2                !
 ! A31   A(17,16,18)           109.4712         estimate D2E/DX2                !
 ! A32   A(17,16,19)           109.4713         estimate D2E/DX2                !
 ! A33   A(18,16,19)           109.4712         estimate D2E/DX2                !
 ! A34   A(16,19,20)           109.4712         estimate D2E/DX2                !
 ! A35   A(16,19,21)           109.4712         estimate D2E/DX2                !
 ! A36   A(16,19,22)           109.4712         estimate D2E/DX2                !
 ! A37   A(20,19,21)           109.4712         estimate D2E/DX2                !
 ! A38   A(20,19,22)           109.4713         estimate D2E/DX2                !
 ! A39   A(21,19,22)           109.4712         estimate D2E/DX2                !
 ! A40   A(19,22,23)           119.8865         estimate D2E/DX2                !
 ! A41   A(19,22,24)           119.8865         estimate D2E/DX2                !
 ! A42   A(23,22,24)           120.2269         estimate D2E/DX2                !
 ! D1    D(4,1,2,6)            179.9987         estimate D2E/DX2                !
 ! D2    D(4,1,2,12)             0.0004         estimate D2E/DX2                !
 ! D3    D(5,1,2,6)              0.0051         estimate D2E/DX2                !
 ! D4    D(5,1,2,12)          -179.9933         estimate D2E/DX2                !
 ! D5    D(2,1,4,3)              0.0039         estimate D2E/DX2                !
 ! D6    D(2,1,4,8)            179.9846         estimate D2E/DX2                !
 ! D7    D(5,1,4,3)            179.9982         estimate D2E/DX2                !
 ! D8    D(5,1,4,8)             -0.0211         estimate D2E/DX2                !
 ! D9    D(1,2,12,3)            -0.0044         estimate D2E/DX2                !
 ! D10   D(1,2,12,13)         -179.9984         estimate D2E/DX2                !
 ! D11   D(6,2,12,3)           179.9972         estimate D2E/DX2                !
 ! D12   D(6,2,12,13)            0.0033         estimate D2E/DX2                !
 ! D13   D(7,3,4,1)            179.9924         estimate D2E/DX2                !
 ! D14   D(7,3,4,8)              0.0117         estimate D2E/DX2                !
 ! D15   D(12,3,4,1)            -0.0067         estimate D2E/DX2                !
 ! D16   D(12,3,4,8)          -179.9874         estimate D2E/DX2                !
 ! D17   D(4,3,12,2)             0.0069         estimate D2E/DX2                !
 ! D18   D(4,3,12,13)         -179.9992         estimate D2E/DX2                !
 ! D19   D(7,3,12,2)          -179.9922         estimate D2E/DX2                !
 ! D20   D(7,3,12,13)            0.0017         estimate D2E/DX2                !
 ! D21   D(1,4,8,9)            150.3807         estimate D2E/DX2                !
 ! D22   D(1,4,8,10)           -89.6193         estimate D2E/DX2                !
 ! D23   D(1,4,8,11)            30.3807         estimate D2E/DX2                !
 ! D24   D(3,4,8,9)            -29.6417         estimate D2E/DX2                !
 ! D25   D(3,4,8,10)            90.3583         estimate D2E/DX2                !
 ! D26   D(3,4,8,11)          -149.6417         estimate D2E/DX2                !
 ! D27   D(2,12,13,14)         -88.9089         estimate D2E/DX2                !
 ! D28   D(2,12,13,15)         151.0911         estimate D2E/DX2                !
 ! D29   D(2,12,13,16)          31.0911         estimate D2E/DX2                !
 ! D30   D(3,12,13,14)          91.0983         estimate D2E/DX2                !
 ! D31   D(3,12,13,15)         -28.9017         estimate D2E/DX2                !
 ! D32   D(3,12,13,16)        -148.9017         estimate D2E/DX2                !
 ! D33   D(12,13,16,17)       -101.9318         estimate D2E/DX2                !
 ! D34   D(12,13,16,18)         18.0682         estimate D2E/DX2                !
 ! D35   D(12,13,16,19)        138.0682         estimate D2E/DX2                !
 ! D36   D(14,13,16,17)         18.0682         estimate D2E/DX2                !
 ! D37   D(14,13,16,18)        138.0682         estimate D2E/DX2                !
 ! D38   D(14,13,16,19)       -101.9318         estimate D2E/DX2                !
 ! D39   D(15,13,16,17)        138.0682         estimate D2E/DX2                !
 ! D40   D(15,13,16,18)       -101.9318         estimate D2E/DX2                !
 ! D41   D(15,13,16,19)         18.0682         estimate D2E/DX2                !
 ! D42   D(13,16,19,20)        130.5682         estimate D2E/DX2                !
 ! D43   D(13,16,19,21)         10.5682         estimate D2E/DX2                !
 ! D44   D(13,16,19,22)       -109.4318         estimate D2E/DX2                !
 ! D45   D(17,16,19,20)         10.5682         estimate D2E/DX2                !
 ! D46   D(17,16,19,21)       -109.4318         estimate D2E/DX2                !
 ! D47   D(17,16,19,22)        130.5682         estimate D2E/DX2                !
 ! D48   D(18,16,19,20)       -109.4318         estimate D2E/DX2                !
 ! D49   D(18,16,19,21)        130.5682         estimate D2E/DX2                !
 ! D50   D(18,16,19,22)         10.5682         estimate D2E/DX2                !
 ! D51   D(16,19,22,23)         90.8301         estimate D2E/DX2                !
 ! D52   D(16,19,22,24)        -89.1699         estimate D2E/DX2                !
 ! D53   D(20,19,22,23)       -149.1699         estimate D2E/DX2                !
 ! D54   D(20,19,22,24)         30.8301         estimate D2E/DX2                !
 ! D55   D(21,19,22,23)        -29.1699         estimate D2E/DX2                !
 ! D56   D(21,19,22,24)        150.8301         estimate D2E/DX2                !
 --------------------------------------------------------------------------------
 Trust Radius=3.00D-01 FncErr=1.00D-07 GrdErr=1.00D-06 EigMax=2.50D+02 EigMin=1.00D-04
 Number of steps in this run=    132 maximum allowed number of steps=    144.
 GradGradGradGradGradGradGradGradGradGradGradGradGradGradGradGradGradGrad

 Leave Link  103 at Wed May 18 10:35:56 2022, MaxMem= 26843545600 cpu:               0.2 elap:               0.0
 (Enter /data0/home/wuhanyu/software/g16/l202.exe)
                          Input orientation:                          
 ---------------------------------------------------------------------
 Center     Atomic      Atomic             Coordinates (Angstroms)
 Number     Number       Type             X           Y           Z
 ---------------------------------------------------------------------
      1          6           0       -1.158270   -1.510810    0.113997
      2          6           0        0.243359   -1.504433    0.131279
      3          6           0       -0.498719    0.653604    0.061327
      4          7           0       -1.603506   -0.192837    0.071430
      5          1           0       -1.856298   -2.346895    0.128879
      6          1           0        0.891342   -2.373854    0.163792
      7          1           0       -0.612183    1.736438    0.029358
      8          6           0       -3.009624    0.234763    0.041581
      9          1           0       -3.101647    1.191170    0.512450
     10          1           0       -3.339926    0.303865   -0.973814
     11          1           0       -3.610800   -0.479499    0.564378
     12          7           0        0.661562   -0.132263    0.097955
     13          6           0        2.047772    0.356930    0.101452
     14          1           0        2.377965    0.485819    1.111036
     15          1           0        2.096484    1.294334   -0.412165
     16          6           0        2.954650   -0.665247   -0.608708
     17          1           0        3.488873   -1.236132    0.121769
     18          1           0        2.354705   -1.320792   -1.204716
     19          6           0        3.956119    0.077720   -1.512400
     20          1           0        4.944424   -0.286875   -1.324716
     21          1           0        3.916750    1.126077   -1.301930
     22          6           0        3.591832   -0.163419   -2.989135
     23          8           0        2.787583    0.656575   -3.600833
     24          8           0        4.089315   -1.186476   -3.620994
 ---------------------------------------------------------------------
                    Distance matrix (angstroms):
                    1          2          3          4          5
     1  C    0.000000
     2  C    1.401750   0.000000
     3  C    2.263287   2.283133   0.000000
     4  N    1.391798   2.266005   1.391804   0.000000
     5  H    1.089267   2.262368   3.294021   2.169602   0.000000
     6  H    2.224463   1.084819   3.332907   3.315062   2.747995
     7  H    3.293933   3.353444   1.089232   2.169468   4.269817
     8  C    2.545542   3.689817   2.545675   1.470000   2.828912
     9  H    3.352041   4.312845   2.695871   2.086720   3.770401
    10  H    3.039079   4.163064   3.044058   2.086720   3.231658
    11  H    2.698398   4.011559   3.349929   2.086720   2.599059
    12  N    2.283076   1.434871   1.401848   2.266033   3.353382
    13  C    3.710433   2.592579   2.564028   3.692557   4.749019
    14  H    4.181575   3.078566   3.066814   4.170548   5.188245
    15  H    4.328868   3.400367   2.714739   4.016898   5.401459
    16  C    4.260680   2.933073   3.756870   4.632769   5.149485
    17  H    4.655260   3.256599   4.413122   5.198396   5.459368
    18  H    3.757141   2.505273   3.693661   4.309092   4.534745
    19  C    5.596925   4.357692   4.759605   5.787154   6.508207
    20  H    6.388332   5.069752   5.695035   6.695779   7.253030
    21  H    5.891846   4.739986   4.645220   5.839424   6.887440
    22  C    5.831669   4.769441   5.167732   6.029881   6.646179
    23  O    5.836718   5.007164   4.920489   5.786941   6.670624
    24  O    6.449224   5.382567   6.164044   6.857807   7.124495
                    6          7          8          9         10
     6  H    0.000000
     7  H    4.378717   0.000000
     8  C    4.694397   2.828940   0.000000
     9  H    5.364226   2.593863   1.070000   0.000000
    10  H    5.134974   3.240247   1.070000   1.747303   0.000000
    11  H    4.900851   3.766739   1.070000   1.747303   1.747303
    12  N    2.254300   2.262559   3.689917   4.010613   4.165429
    13  C    2.966209   2.997265   5.059225   5.232723   5.494206
    14  H    3.359323   3.416878   5.498443   5.557155   6.088841
    15  H    3.903805   2.779797   5.234588   5.280731   5.554370
    16  C    2.788070   4.347127   6.066750   6.432885   6.379198
    17  H    2.836079   5.065903   6.663365   7.034158   7.085505
    18  H    2.263446   4.435315   5.722678   6.247431   5.926352
    19  C    4.267633   5.098798   7.138704   7.426429   7.319391
    20  H    4.795687   6.066563   8.087382   8.384453   8.312794
    21  H    4.852932   4.759842   7.111548   7.249421   7.310474
    22  C    4.703149   5.513120   7.274820   7.674547   7.233888
    23  O    5.191496   5.089479   6.859498   7.203327   6.676227
    24  O    5.095243   6.631182   8.113526   8.628354   8.026350
                   11         12         13         14         15
    11  H    0.000000
    12  N    4.311751   0.000000
    13  C    5.738758   1.470000   0.000000
    14  H    6.090647   2.086720   1.070000   0.000000
    15  H    6.055840   2.086720   1.070000   1.747303   0.000000
    16  C    6.672014   2.457987   1.540000   2.148263   2.148263
    17  H    7.153583   3.035257   2.148263   2.275496   2.937191
    18  H    6.278911   2.444645   2.148263   2.937191   2.744758
    19  C    7.866497   3.673070   2.514809   3.088613   2.479699
    20  H    8.763426   4.515618   3.292269   3.621692   3.382858
    21  H    7.919910   3.760232   2.460517   2.932608   2.033066
    22  C    8.037740   4.256475   3.493796   4.325087   3.316909
    23  O    7.718741   4.338579   3.787350   4.732722   3.324449
    24  O    8.792549   5.166376   4.517367   5.302584   4.519113
                   16         17         18         19         20
    16  C    0.000000
    17  H    1.070000   0.000000
    18  H    1.070000   1.747303   0.000000
    19  C    1.540000   2.148263   2.148263   0.000000
    20  H    2.148263   2.260982   2.791062   1.070000   0.000000
    21  H    2.148263   2.791063   2.904583   1.070000   1.747303
    22  C    2.514809   3.292269   2.460517   1.540000   2.148263
    23  O    3.275354   4.234609   3.136677   2.462134   3.274564
    24  O    3.260830   3.790946   2.977467   2.462134   2.610247
                   21         22         23         24
    21  H    0.000000
    22  C    2.148263   0.000000
    23  O    2.603922   1.301300   0.000000
    24  O    3.279595   1.301300   2.256490   0.000000
 Stoichiometry    C8H12N2O2
 Framework group  C1[X(C8H12N2O2)]
 Deg. of freedom    66
 Full point group                 C1      NOp   1
 Largest Abelian subgroup         C1      NOp   1
 Largest concise Abelian subgroup C1      NOp   1
                         Standard orientation:                         
 ---------------------------------------------------------------------
 Center     Atomic      Atomic             Coordinates (Angstroms)
 Number     Number       Type             X           Y           Z
 ---------------------------------------------------------------------
      1          6           0        2.555385   -0.223834    1.242219
      2          6           0        1.319402   -0.859186    1.058985
      3          6           0        1.952772    0.095544   -0.915864
      4          7           0        2.935199    0.355576    0.035104
      5          1           0        3.179043   -0.145755    2.131859
      6          1           0        0.756468   -1.402472    1.810503
      7          1           0        2.042253    0.456989   -1.939473
      8          6           0        4.170783    1.117383   -0.197020
      9          1           0        4.472516    1.005299   -1.217459
     10          1           0        3.996295    2.152219    0.011710
     11          1           0        4.942908    0.749143    0.445726
     12          7           0        0.937334   -0.656798   -0.309196
     13          6           0       -0.289751   -1.147004   -0.953292
     14          1           0       -0.117203   -2.124943   -1.351741
     15          1           0       -0.566602   -0.482923   -1.745282
     16          6           0       -1.425152   -1.208833    0.085286
     17          1           0       -1.564554   -2.221502    0.401465
     18          1           0       -1.169437   -0.603517    0.929740
     19          6           0       -2.727953   -0.684379   -0.546581
     20          1           0       -3.519792   -1.379454   -0.360136
     21          1           0       -2.592636   -0.572607   -1.602088
     22          6           0       -3.085854    0.679596    0.072354
     23          8           0       -2.651263    1.775614   -0.478333
     24          8           0       -3.821834    0.732180    1.144245
 ---------------------------------------------------------------------
 Rotational constants (GHZ):           1.9368421           0.3991193           0.3837218
 Leave Link  202 at Wed May 18 10:35:56 2022, MaxMem= 26843545600 cpu:               0.1 elap:               0.0
 (Enter /data0/home/wuhanyu/software/g16/l301.exe)
 Standard basis: 6-311G(d,p) (5D, 7F)
 Ernie: Thresh=  0.10000D-02 Tol=  0.10000D-05 Strict=F.
 There are   300 symmetry adapted cartesian basis functions of A   symmetry.
 There are   288 symmetry adapted basis functions of A   symmetry.
   288 basis functions,   480 primitive gaussians,   300 cartesian basis functions
    45 alpha electrons       45 beta electrons
       nuclear repulsion energy       677.6086152530 Hartrees.
 IExCor=  402 DFT=T Ex+Corr=B3LYP ExCW=0 ScaHFX=  0.200000
 ScaDFX=  0.800000  0.720000  1.000000  0.810000 ScalE2=  1.000000  1.000000
 IRadAn=      5 IRanWt=     -1 IRanGd=            0 ICorTp=0 IEmpDi=141
 NAtoms=   24 NActive=   24 NUniq=   24 SFac= 1.00D+00 NAtFMM=   60 NAOKFM=F Big=F
 Integral buffers will be    131072 words long.
 Raffenetti 2 integral format.
 Two-electron integral symmetry is turned on.
 R6Disp:  Grimme-D3(BJ) Dispersion energy=       -0.0390124469 Hartrees.
 Nuclear repulsion after empirical dispersion term =      677.5696028061 Hartrees.
 Leave Link  301 at Wed May 18 10:35:56 2022, MaxMem= 26843545600 cpu:               1.1 elap:               0.1
 (Enter /data0/home/wuhanyu/software/g16/l302.exe)
 NPDir=0 NMtPBC=     1 NCelOv=     1 NCel=       1 NClECP=     1 NCelD=      1
         NCelK=      1 NCelE2=     1 NClLst=     1 CellRange=     0.0.
 One-electron integrals computed using PRISM.
 One-electron integral symmetry used in STVInt
 NBasis=   288 RedAO= T EigKep=  9.55D-04  NBF=   288
 NBsUse=   288 1.00D-06 EigRej= -1.00D+00 NBFU=   288
 Precomputing XC quadrature grid using
 IXCGrd= 4 IRadAn=           5 IRanWt=          -1 IRanGd=           0 AccXCQ= 0.00D+00.
 Generated NRdTot=       0 NPtTot=           0 NUsed=           0 NTot=          32
 NSgBfM=   300   300   300   300   300 MxSgAt=    24 MxSgA2=    24.
 Leave Link  302 at Wed May 18 10:35:56 2022, MaxMem= 26843545600 cpu:               5.1 elap:               0.2
 (Enter /data0/home/wuhanyu/software/g16/l303.exe)
 DipDrv:  MaxL=1.
 Leave Link  303 at Wed May 18 10:35:56 2022, MaxMem= 26843545600 cpu:               0.7 elap:               0.0
 (Enter /data0/home/wuhanyu/software/g16/l401.exe)
 ExpMin= 1.03D-01 ExpMax= 8.59D+03 ExpMxC= 1.30D+03 IAcc=3 IRadAn=         5 AccDes= 0.00D+00
 Harris functional with IExCor=  402 and IRadAn=       5 diagonalized for initial guess.
 HarFok:  IExCor=  402 AccDes= 0.00D+00 IRadAn=         5 IDoV= 1 UseB2=F ITyADJ=14
 ICtDFT=  3500011 ScaDFX=  1.000000  1.000000  1.000000  1.000000
 FoFCou: FMM=F IPFlag=           0 FMFlag=      100000 FMFlg1=           0
         NFxFlg=           0 DoJE=T BraDBF=F KetDBF=T FulRan=T
         wScrn=  0.000000 ICntrl=       500 IOpCl=  0 I1Cent=   200000004 NGrid=           0
         NMat0=    1 NMatS0=      1 NMatT0=    0 NMatD0=    1 NMtDS0=    0 NMtDT0=    0
 Petite list used in FoFCou.
 Harris En= -572.242254919691    
 JPrj=0 DoOrth=F DoCkMO=F.
 Leave Link  401 at Wed May 18 10:35:57 2022, MaxMem= 26843545600 cpu:              16.4 elap:               0.8
 (Enter /data0/home/wuhanyu/software/g16/l502.exe)
 Integral symmetry usage will be decided dynamically.
 Closed shell SCF:
 Using DIIS extrapolation, IDIIS=  1040.
 NGot= 26843545600 LenX= 26843355888 LenY= 26843265447
 Requested convergence on RMS density matrix=1.00D-08 within 128 cycles.
 Requested convergence on MAX density matrix=1.00D-06.
 Requested convergence on             energy=1.00D-06.
 No special actions if energy rises.
 Fock matrices will be formed incrementally for  20 cycles.
 Integral accuracy reduced to 1.0D-05 until final iterations.

 Cycle   1  Pass 0  IDiag  1:
 FoFJK:  IHMeth= 1 ICntrl=       0 DoSepK=F KAlg= 0 I1Cent=           0 FoldK=F
 IRaf= 840000000 NMat=       1 IRICut=       1 DoRegI=T DoRafI=F ISym2E= 0 IDoP0=0 IntGTp=1.
 FoFCou: FMM=F IPFlag=           0 FMFlag=      100000 FMFlg1=           0
         NFxFlg=           0 DoJE=F BraDBF=F KetDBF=F FulRan=T
         wScrn=  0.000000 ICntrl=         0 IOpCl=  0 I1Cent=           0 NGrid=           0
         NMat0=    1 NMatS0=      1 NMatT0=    0 NMatD0=    1 NMtDS0=    0 NMtDT0=    0
 Symmetry not used in FoFCou.
 E= -571.730313840172    
 DIIS: error= 5.57D-02 at cycle   1 NSaved=   1.
 NSaved= 1 IEnMin= 1 EnMin= -571.730313840172     IErMin= 1 ErrMin= 5.57D-02
 ErrMax= 5.57D-02  0.00D+00 EMaxC= 1.00D-01 BMatC= 4.66D-01 BMatP= 4.66D-01
 IDIUse=3 WtCom= 4.43D-01 WtEn= 5.57D-01
 Coeff-Com:  0.100D+01
 Coeff-En:   0.100D+01
 Coeff:      0.100D+01
 Gap=     0.196 Goal=   None    Shift=    0.000
 GapD=    0.196 DampG=1.000 DampE=0.500 DampFc=0.5000 IDamp=-1.
 Damping current iteration by 5.00D-01
 RMSDP=2.11D-02 MaxDP=2.15D+00              OVMax= 9.96D-01

 Cycle   2  Pass 0  IDiag  1:
 RMSU=  1.05D-02    CP:  9.55D-01
 E= -569.719896316699     Delta-E=        2.010417523473 Rises=F Damp=T
 DIIS: error= 4.22D-02 at cycle   2 NSaved=   2.
 NSaved= 2 IEnMin= 1 EnMin= -571.730313840172     IErMin= 2 ErrMin= 4.22D-02
 ErrMax= 4.22D-02  0.00D+00 EMaxC= 1.00D-01 BMatC= 6.09D-01 BMatP= 4.66D-01
 IDIUse=2 WtCom= 0.00D+00 WtEn= 1.00D+00
 Coeff-En:   0.853D+00 0.147D+00
 Coeff:      0.853D+00 0.147D+00
 Gap=     0.025 Goal=   None    Shift=    0.000
 RMSDP=1.07D-02 MaxDP=1.07D+00 DE= 2.01D+00 OVMax= 9.99D-01

 Cycle   3  Pass 0  IDiag  1:
 RMSU=  3.34D-03    CP:  9.88D-01  3.19D-02
 E= -571.824002993872     Delta-E=       -2.104106677172 Rises=F Damp=F
 DIIS: error= 4.24D-02 at cycle   3 NSaved=   3.
 NSaved= 3 IEnMin= 3 EnMin= -571.824002993872     IErMin= 2 ErrMin= 4.22D-02
 ErrMax= 4.24D-02  0.00D+00 EMaxC= 1.00D-01 BMatC= 3.47D-01 BMatP= 4.66D-01
 IDIUse=3 WtCom= 5.76D-01 WtEn= 4.24D-01
 Coeff-Com:  0.446D+00 0.848D-01 0.470D+00
 Coeff-En:   0.430D+00 0.000D+00 0.570D+00
 Coeff:      0.439D+00 0.489D-01 0.512D+00
 Gap=     0.011 Goal=   None    Shift=    0.000
 RMSDP=1.75D-03 MaxDP=1.10D-01 DE=-2.10D+00 OVMax= 1.49D-01

 Cycle   4  Pass 0  IDiag  1:
 RMSU=  9.31D-04    CP:  9.95D-01  2.00D-02  5.59D-01
 E= -572.083605047924     Delta-E=       -0.259602054052 Rises=F Damp=F
 DIIS: error= 1.53D-02 at cycle   4 NSaved=   4.
 NSaved= 4 IEnMin= 4 EnMin= -572.083605047924     IErMin= 4 ErrMin= 1.53D-02
 ErrMax= 1.53D-02  0.00D+00 EMaxC= 1.00D-01 BMatC= 2.59D-02 BMatP= 3.47D-01
 IDIUse=3 WtCom= 8.47D-01 WtEn= 1.53D-01
 Coeff-Com:  0.142D+00 0.382D-01 0.250D+00 0.569D+00
 Coeff-En:   0.000D+00 0.000D+00 0.000D+00 0.100D+01
 Coeff:      0.120D+00 0.324D-01 0.212D+00 0.635D+00
 Gap=     0.015 Goal=   None    Shift=    0.000
 RMSDP=5.34D-04 MaxDP=3.69D-02 DE=-2.60D-01 OVMax= 6.28D-02

 Cycle   5  Pass 0  IDiag  1:
 RMSU=  3.52D-04    CP:  9.97D-01  2.18D-02  6.09D-01  6.08D-01
 E= -572.099617067609     Delta-E=       -0.016012019685 Rises=F Damp=F
 DIIS: error= 6.21D-03 at cycle   5 NSaved=   5.
 NSaved= 5 IEnMin= 5 EnMin= -572.099617067609     IErMin= 5 ErrMin= 6.21D-03
 ErrMax= 6.21D-03  0.00D+00 EMaxC= 1.00D-01 BMatC= 6.41D-03 BMatP= 2.59D-02
 IDIUse=3 WtCom= 9.38D-01 WtEn= 6.21D-02
 Coeff-Com:  0.145D-01 0.188D-01 0.602D-01 0.392D+00 0.515D+00
 Coeff-En:   0.000D+00 0.000D+00 0.000D+00 0.231D+00 0.769D+00
 Coeff:      0.136D-01 0.176D-01 0.565D-01 0.382D+00 0.531D+00
 Gap=     0.014 Goal=   None    Shift=    0.000
 RMSDP=2.33D-04 MaxDP=9.52D-03 DE=-1.60D-02 OVMax= 2.59D-02

 Cycle   6  Pass 0  IDiag  1:
 RMSU=  1.09D-04    CP:  9.96D-01  2.17D-02  6.05D-01  7.69D-01  6.01D-01
 E= -572.105230209160     Delta-E=       -0.005613141552 Rises=F Damp=F
 DIIS: error= 1.87D-03 at cycle   6 NSaved=   6.
 NSaved= 6 IEnMin= 6 EnMin= -572.105230209160     IErMin= 6 ErrMin= 1.87D-03
 ErrMax= 1.87D-03  0.00D+00 EMaxC= 1.00D-01 BMatC= 5.99D-04 BMatP= 6.41D-03
 IDIUse=3 WtCom= 9.81D-01 WtEn= 1.87D-02
 Coeff-Com: -0.899D-02 0.151D-01 0.951D-02 0.182D+00 0.319D+00 0.484D+00
 Coeff-En:   0.000D+00 0.000D+00 0.000D+00 0.000D+00 0.000D+00 0.100D+01
 Coeff:     -0.883D-02 0.148D-01 0.933D-02 0.178D+00 0.313D+00 0.493D+00
 Gap=     0.014 Goal=   None    Shift=    0.000
 RMSDP=6.69D-05 MaxDP=2.53D-03 DE=-5.61D-03 OVMax= 7.47D-03

 Cycle   7  Pass 0  IDiag  1:
 RMSU=  5.72D-05    CP:  9.96D-01  2.17D-02  6.10D-01  7.74D-01  6.60D-01
                    CP:  7.89D-01
 E= -572.105584642417     Delta-E=       -0.000354433257 Rises=F Damp=F
 DIIS: error= 1.30D-03 at cycle   7 NSaved=   7.
 NSaved= 7 IEnMin= 7 EnMin= -572.105584642417     IErMin= 7 ErrMin= 1.30D-03
 ErrMax= 1.30D-03  0.00D+00 EMaxC= 1.00D-01 BMatC= 2.32D-04 BMatP= 5.99D-04
 IDIUse=3 WtCom= 9.87D-01 WtEn= 1.30D-02
 Coeff-Com: -0.115D-01 0.138D-01-0.313D-02 0.710D-01 0.145D+00 0.309D+00
 Coeff-Com:  0.476D+00
 Coeff-En:   0.000D+00 0.000D+00 0.000D+00 0.000D+00 0.000D+00 0.378D-02
 Coeff-En:   0.996D+00
 Coeff:     -0.113D-01 0.136D-01-0.309D-02 0.701D-01 0.143D+00 0.305D+00
 Coeff:      0.483D+00
 Gap=     0.014 Goal=   None    Shift=    0.000
 RMSDP=3.89D-05 MaxDP=1.13D-03 DE=-3.54D-04 OVMax= 7.92D-03

 Cycle   8  Pass 0  IDiag  1:
 RMSU=  3.38D-05    CP:  9.96D-01  2.18D-02  6.11D-01  7.78D-01  6.74D-01
                    CP:  9.33D-01  1.16D+00
 E= -572.105694161333     Delta-E=       -0.000109518916 Rises=F Damp=F
 DIIS: error= 1.13D-03 at cycle   8 NSaved=   8.
 NSaved= 8 IEnMin= 8 EnMin= -572.105694161333     IErMin= 8 ErrMin= 1.13D-03
 ErrMax= 1.13D-03  0.00D+00 EMaxC= 1.00D-01 BMatC= 1.41D-04 BMatP= 2.32D-04
 IDIUse=3 WtCom= 9.89D-01 WtEn= 1.13D-02
 Coeff-Com: -0.801D-02 0.107D-01-0.478D-02-0.139D-01-0.215D-01-0.956D-01
 Coeff-Com:  0.852D-01 0.105D+01
 Coeff-En:   0.000D+00 0.000D+00 0.000D+00 0.000D+00 0.000D+00 0.000D+00
 Coeff-En:   0.000D+00 0.100D+01
 Coeff:     -0.792D-02 0.106D-01-0.472D-02-0.137D-01-0.213D-01-0.946D-01
 Coeff:      0.843D-01 0.105D+01
 Gap=     0.012 Goal=   None    Shift=    0.000
 RMSDP=1.14D-04 MaxDP=3.76D-03 DE=-1.10D-04 OVMax= 2.75D-02

 Cycle   9  Pass 0  IDiag  1:
 RMSU=  3.93D-05    CP:  9.96D-01  2.21D-02  6.13D-01  7.89D-01  7.04D-01
                    CP:  1.25D+00  2.47D+00  2.94D+00
 E= -572.105871780746     Delta-E=       -0.000177619412 Rises=F Damp=F
 DIIS: error= 8.50D-04 at cycle   9 NSaved=   9.
 NSaved= 9 IEnMin= 9 EnMin= -572.105871780746     IErMin= 9 ErrMin= 8.50D-04
 ErrMax= 8.50D-04  0.00D+00 EMaxC= 1.00D-01 BMatC= 7.51D-05 BMatP= 1.41D-04
 IDIUse=3 WtCom= 9.92D-01 WtEn= 8.50D-03
 Coeff-Com: -0.276D-02 0.478D-02-0.909D-03-0.463D-01-0.989D-01-0.342D+00
 Coeff-Com: -0.413D+00 0.980D+00 0.920D+00
 Coeff-En:   0.000D+00 0.000D+00 0.000D+00 0.000D+00 0.000D+00 0.000D+00
 Coeff-En:   0.000D+00 0.000D+00 0.100D+01
 Coeff:     -0.273D-02 0.474D-02-0.901D-03-0.459D-01-0.981D-01-0.339D+00
 Coeff:     -0.410D+00 0.971D+00 0.920D+00
 Gap=     0.010 Goal=   None    Shift=    0.000
 RMSDP=3.46D-04 MaxDP=1.23D-02 DE=-1.78D-04 OVMax= 8.52D-02

 Cycle  10  Pass 0  IDiag  1:
 RMSU=  2.92D-04    CP:  9.95D-01  2.37D-02  6.18D-01  8.05D-01  7.76D-01
                    CP:  2.13D+00  3.00D+00  3.00D+00  3.00D+00
 E= -572.106216377528     Delta-E=       -0.000344596782 Rises=F Damp=F
 DIIS: error= 6.80D-04 at cycle  10 NSaved=  10.
 NSaved=10 IEnMin=10 EnMin= -572.106216377528     IErMin=10 ErrMin= 6.80D-04
 ErrMax= 6.80D-04  0.00D+00 EMaxC= 1.00D-01 BMatC= 6.73D-05 BMatP= 7.51D-05
 IDIUse=3 WtCom= 9.93D-01 WtEn= 6.80D-03
 Coeff-Com: -0.410D-03 0.432D-03 0.158D-02-0.103D-01-0.312D-01-0.975D-01
 Coeff-Com: -0.106D+00 0.445D+00 0.354D+00 0.445D+00
 Coeff-En:   0.000D+00 0.000D+00 0.000D+00 0.000D+00 0.000D+00 0.000D+00
 Coeff-En:   0.000D+00 0.000D+00 0.000D+00 0.100D+01
 Coeff:     -0.407D-03 0.429D-03 0.157D-02-0.102D-01-0.310D-01-0.969D-01
 Coeff:     -0.106D+00 0.442D+00 0.351D+00 0.449D+00
 Gap=     0.011 Goal=   None    Shift=    0.000
 RMSDP=1.62D-04 MaxDP=5.85D-03 DE=-3.45D-04 OVMax= 4.00D-02

 Cycle  11  Pass 0  IDiag  1:
 RMSU=  5.45D-05    CP:  9.95D-01  2.47D-02  6.17D-01  8.03D-01  7.89D-01
                    CP:  2.48D+00  3.00D+00  3.00D+00  3.00D+00  1.50D+00
 E= -572.106028262085     Delta-E=        0.000188115443 Rises=F Damp=F
 DIIS: error= 1.56D-03 at cycle  11 NSaved=  11.
 NSaved=11 IEnMin=10 EnMin= -572.106216377528     IErMin=10 ErrMin= 6.80D-04
 ErrMax= 1.56D-03  0.00D+00 EMaxC= 1.00D-01 BMatC= 2.60D-04 BMatP= 6.73D-05
 IDIUse=3 WtCom= 9.93D-01 WtEn= 6.80D-03
 Rare condition: small coef for last iteration:  0.000D+00
 Coeff-Com: -0.648D-03 0.432D-03 0.969D-03-0.616D-02-0.204D-01-0.468D-01
 Coeff-Com:  0.557D-02 0.453D+00 0.209D+00 0.167D+00 0.238D+00
 Coeff-En:   0.000D+00 0.000D+00 0.000D+00 0.000D+00 0.000D+00 0.000D+00
 Coeff-En:   0.000D+00 0.000D+00 0.360D+00 0.000D+00 0.640D+00
 Coeff:     -0.648D-03 0.432D-03 0.969D-03-0.616D-02-0.204D-01-0.468D-01
 Coeff:      0.557D-02 0.453D+00 0.209D+00 0.167D+00 0.238D+00
 Gap=     0.011 Goal=   None    Shift=    0.000
 RMSDP=5.92D-05 MaxDP=1.87D-03 DE= 1.88D-04 OVMax= 1.42D-02

 Cycle  12  Pass 0  IDiag  1:
 RMSU=  1.09D-05    CP:  9.95D-01  2.42D-02  6.16D-01  7.99D-01  7.74D-01
                    CP:  2.32D+00  3.00D+00  3.00D+00  3.00D+00  1.32D+00
                    CP:  7.41D-01
 E= -572.106192404550     Delta-E=       -0.000164142465 Rises=F Damp=F
 DIIS: error= 1.09D-03 at cycle  12 NSaved=  12.
 NSaved=12 IEnMin=10 EnMin= -572.106216377528     IErMin=10 ErrMin= 6.80D-04
 ErrMax= 1.09D-03  0.00D+00 EMaxC= 1.00D-01 BMatC= 1.27D-04 BMatP= 6.73D-05
 IDIUse=3 WtCom= 9.93D-01 WtEn= 6.80D-03
 Coeff-Com: -0.245D-03 0.803D-05 0.349D-03-0.306D-02-0.101D-01-0.103D-01
 Coeff-Com:  0.559D-01 0.312D+00 0.104D+00-0.248D+00-0.497D+00 0.130D+01
 Coeff-En:   0.000D+00 0.000D+00 0.000D+00 0.000D+00 0.000D+00 0.000D+00
 Coeff-En:   0.000D+00 0.000D+00 0.000D+00 0.000D+00 0.000D+00 0.100D+01
 Coeff:     -0.243D-03 0.797D-05 0.347D-03-0.304D-02-0.100D-01-0.103D-01
 Coeff:      0.555D-01 0.310D+00 0.103D+00-0.246D+00-0.494D+00 0.129D+01
 Gap=     0.013 Goal=   None    Shift=    0.000
 RMSDP=3.31D-05 MaxDP=1.02D-03 DE=-1.64D-04 OVMax= 6.96D-03

 Cycle  13  Pass 0  IDiag  1:
 RMSU=  8.70D-06    CP:  9.95D-01  2.43D-02  6.13D-01  7.91D-01  7.66D-01
                    CP:  2.35D+00  3.00D+00  3.00D+00  3.00D+00  1.40D+00
                    CP:  1.04D+00  1.73D+00
 E= -572.106201604723     Delta-E=       -0.000009200174 Rises=F Damp=F
 DIIS: error= 1.01D-03 at cycle  13 NSaved=  13.
 NSaved=13 IEnMin=10 EnMin= -572.106216377528     IErMin=10 ErrMin= 6.80D-04
 ErrMax= 1.01D-03  0.00D+00 EMaxC= 1.00D-01 BMatC= 1.20D-04 BMatP= 6.73D-05
 IDIUse=3 WtCom= 9.93D-01 WtEn= 6.80D-03
 Coeff-Com: -0.869D-04-0.926D-04-0.378D-03 0.114D-02 0.248D-02 0.260D-01
 Coeff-Com:  0.939D-01 0.162D+00-0.170D-01-0.627D+00-0.135D+01 0.210D+01
 Coeff-Com:  0.605D+00
 Coeff-En:   0.000D+00 0.000D+00 0.000D+00 0.000D+00 0.000D+00 0.000D+00
 Coeff-En:   0.000D+00 0.000D+00 0.000D+00 0.000D+00 0.000D+00 0.000D+00
 Coeff-En:   0.100D+01
 Coeff:     -0.863D-04-0.920D-04-0.376D-03 0.113D-02 0.246D-02 0.258D-01
 Coeff:      0.932D-01 0.161D+00-0.169D-01-0.623D+00-0.134D+01 0.209D+01
 Coeff:      0.608D+00
 Gap=     0.015 Goal=   None    Shift=    0.000
 RMSDP=2.99D-05 MaxDP=1.03D-03 DE=-9.20D-06 OVMax= 4.43D-03

 Cycle  14  Pass 0  IDiag  1:
 RMSU=  5.99D-06    CP:  9.95D-01  2.41D-02  6.09D-01  7.79D-01  7.46D-01
                    CP:  2.29D+00  3.00D+00  3.00D+00  3.00D+00  1.39D+00
                    CP:  1.25D+00  3.00D+00  1.39D+00
 E= -572.106281429830     Delta-E=       -0.000079825107 Rises=F Damp=F
 DIIS: error= 6.82D-04 at cycle  14 NSaved=  14.
 NSaved=14 IEnMin=14 EnMin= -572.106281429830     IErMin=10 ErrMin= 6.80D-04
 ErrMax= 6.82D-04  0.00D+00 EMaxC= 1.00D-01 BMatC= 5.44D-05 BMatP= 6.73D-05
 IDIUse=3 WtCom= 9.93D-01 WtEn= 6.80D-03
 Coeff-Com: -0.641D-04-0.913D-04-0.475D-03 0.201D-02 0.499D-02 0.266D-01
 Coeff-Com:  0.702D-01 0.873D-01-0.449D-01-0.568D+00-0.124D+01 0.168D+01
 Coeff-Com:  0.168D+00 0.816D+00
 Coeff-En:   0.000D+00 0.000D+00 0.000D+00 0.000D+00 0.000D+00 0.000D+00
 Coeff-En:   0.000D+00 0.000D+00 0.000D+00 0.000D+00 0.000D+00 0.000D+00
 Coeff-En:   0.000D+00 0.100D+01
 Coeff:     -0.636D-04-0.907D-04-0.471D-03 0.200D-02 0.495D-02 0.264D-01
 Coeff:      0.697D-01 0.867D-01-0.446D-01-0.564D+00-0.123D+01 0.167D+01
 Coeff:      0.167D+00 0.817D+00
 Gap=     0.017 Goal=   None    Shift=    0.000
 RMSDP=2.52D-05 MaxDP=9.26D-04 DE=-7.98D-05 OVMax= 3.48D-03

 Cycle  15  Pass 0  IDiag  1:
 RMSU=  6.99D-06    CP:  9.95D-01  2.39D-02  6.06D-01  7.69D-01  7.28D-01
                    CP:  2.23D+00  3.00D+00  3.00D+00  3.00D+00  1.37D+00
                    CP:  1.39D+00  3.00D+00  1.90D+00  3.00D+00
 E= -572.106327239681     Delta-E=       -0.000045809850 Rises=F Damp=F
 DIIS: error= 3.78D-04 at cycle  15 NSaved=  15.
 NSaved=15 IEnMin=15 EnMin= -572.106327239681     IErMin=15 ErrMin= 3.78D-04
 ErrMax= 3.78D-04  0.00D+00 EMaxC= 1.00D-01 BMatC= 1.66D-05 BMatP= 5.44D-05
 IDIUse=3 WtCom= 9.96D-01 WtEn= 3.78D-03
 Coeff-Com:  0.235D-04-0.926D-04-0.362D-05 0.629D-04-0.427D-03 0.233D-02
 Coeff-Com:  0.590D-02 0.487D-01-0.987D-02-0.109D+00-0.320D+00 0.371D+00
 Coeff-Com: -0.422D+00 0.395D+00 0.104D+01
 Coeff-En:   0.000D+00 0.000D+00 0.000D+00 0.000D+00 0.000D+00 0.000D+00
 Coeff-En:   0.000D+00 0.000D+00 0.000D+00 0.000D+00 0.000D+00 0.000D+00
 Coeff-En:   0.000D+00 0.000D+00 0.100D+01
 Coeff:      0.234D-04-0.923D-04-0.361D-05 0.627D-04-0.425D-03 0.233D-02
 Coeff:      0.588D-02 0.485D-01-0.983D-02-0.109D+00-0.319D+00 0.369D+00
 Coeff:     -0.420D+00 0.393D+00 0.104D+01
 Gap=     0.019 Goal=   None    Shift=    0.000
 RMSDP=1.86D-05 MaxDP=7.79D-04 DE=-4.58D-05 OVMax= 2.21D-03

 Cycle  16  Pass 0  IDiag  1:
 RMSU=  9.44D-06    CP:  9.95D-01  2.38D-02  6.03D-01  7.61D-01  7.15D-01
                    CP:  2.20D+00  3.00D+00  3.00D+00  3.00D+00  1.36D+00
                    CP:  1.49D+00  3.00D+00  2.29D+00  3.00D+00  1.68D+00
 E= -572.106343952751     Delta-E=       -0.000016713070 Rises=F Damp=F
 DIIS: error= 1.45D-04 at cycle  16 NSaved=  16.
 NSaved=16 IEnMin=16 EnMin= -572.106343952751     IErMin=16 ErrMin= 1.45D-04
 ErrMax= 1.45D-04  0.00D+00 EMaxC= 1.00D-01 BMatC= 2.54D-06 BMatP= 1.66D-05
 IDIUse=3 WtCom= 9.99D-01 WtEn= 1.45D-03
 Coeff-Com:  0.238D-04-0.172D-04 0.735D-04-0.417D-03-0.124D-02-0.441D-02
 Coeff-Com: -0.113D-01 0.106D-01-0.309D-03 0.658D-01 0.100D+00-0.162D+00
 Coeff-Com: -0.284D+00-0.129D+00 0.554D+00 0.862D+00
 Coeff-En:   0.000D+00 0.000D+00 0.000D+00 0.000D+00 0.000D+00 0.000D+00
 Coeff-En:   0.000D+00 0.000D+00 0.000D+00 0.000D+00 0.000D+00 0.000D+00
 Coeff-En:   0.000D+00 0.000D+00 0.000D+00 0.100D+01
 Coeff:      0.237D-04-0.172D-04 0.734D-04-0.416D-03-0.124D-02-0.441D-02
 Coeff:     -0.113D-01 0.105D-01-0.308D-03 0.657D-01 0.999D-01-0.162D+00
 Coeff:     -0.283D+00-0.128D+00 0.553D+00 0.862D+00
 Gap=     0.020 Goal=   None    Shift=    0.000
 RMSDP=1.31D-05 MaxDP=4.92D-04 DE=-1.67D-05 OVMax= 1.92D-03

 Cycle  17  Pass 0  IDiag  1:
 RMSU=  1.65D-06    CP:  9.95D-01  2.36D-02  6.01D-01  7.55D-01  7.06D-01
                    CP:  2.17D+00  3.00D+00  3.00D+00  3.00D+00  1.34D+00
                    CP:  1.51D+00  3.00D+00  2.52D+00  3.00D+00  2.02D+00
                    CP:  1.55D+00
 E= -572.106346954838     Delta-E=       -0.000003002087 Rises=F Damp=F
 DIIS: error= 3.15D-05 at cycle  17 NSaved=  17.
 NSaved=17 IEnMin=17 EnMin= -572.106346954838     IErMin=17 ErrMin= 3.15D-05
 ErrMax= 3.15D-05  0.00D+00 EMaxC= 1.00D-01 BMatC= 1.24D-07 BMatP= 2.54D-06
 IDIUse=1 WtCom= 1.00D+00 WtEn= 0.00D+00
 Coeff-Com:  0.102D-04-0.645D-05 0.297D-04-0.330D-04-0.565D-04-0.442D-03
 Coeff-Com: -0.210D-02-0.695D-03-0.350D-02 0.438D-01 0.674D-01-0.667D-01
 Coeff-Com:  0.266D-02-0.124D+00-0.780D-01 0.439D+00 0.723D+00
 Coeff:      0.102D-04-0.645D-05 0.297D-04-0.330D-04-0.565D-04-0.442D-03
 Coeff:     -0.210D-02-0.695D-03-0.350D-02 0.438D-01 0.674D-01-0.667D-01
 Coeff:      0.266D-02-0.124D+00-0.780D-01 0.439D+00 0.723D+00
 Gap=     0.020 Goal=   None    Shift=    0.000
 RMSDP=3.22D-06 MaxDP=9.40D-05 DE=-3.00D-06 OVMax= 6.68D-04

 Initial convergence to 1.0D-05 achieved.  Increase integral accuracy.
 Cycle  18  Pass 1  IDiag  1:
 E= -572.106345595135     Delta-E=        0.000001359703 Rises=F Damp=F
 DIIS: error= 2.43D-05 at cycle   1 NSaved=   1.
 NSaved= 1 IEnMin= 1 EnMin= -572.106345595135     IErMin= 1 ErrMin= 2.43D-05
 ErrMax= 2.43D-05  0.00D+00 EMaxC= 1.00D-01 BMatC= 6.16D-08 BMatP= 6.16D-08
 IDIUse=1 WtCom= 1.00D+00 WtEn= 0.00D+00
 Coeff-Com:  0.100D+01
 Coeff:      0.100D+01
 Gap=     0.020 Goal=   None    Shift=    0.000
 RMSDP=3.22D-06 MaxDP=9.40D-05 DE= 1.36D-06 OVMax= 9.58D-04

 Cycle  19  Pass 1  IDiag  1:
 RMSU=  9.27D-06    CP:  1.00D+00
 E= -572.106345421367     Delta-E=        0.000000173768 Rises=F Damp=F
 DIIS: error= 4.24D-05 at cycle   2 NSaved=   2.
 NSaved= 2 IEnMin= 1 EnMin= -572.106345595135     IErMin= 1 ErrMin= 2.43D-05
 ErrMax= 4.24D-05  0.00D+00 EMaxC= 1.00D-01 BMatC= 2.06D-07 BMatP= 6.16D-08
 IDIUse=1 WtCom= 1.00D+00 WtEn= 0.00D+00
 Coeff-Com:  0.690D+00 0.310D+00
 Coeff:      0.690D+00 0.310D+00
 Gap=     0.020 Goal=   None    Shift=    0.000
 RMSDP=5.75D-06 MaxDP=1.88D-04 DE= 1.74D-07 OVMax= 1.38D-03

 Cycle  20  Pass 1  IDiag  1:
 RMSU=  5.12D-06    CP:  1.00D+00  7.23D-01
 E= -572.106345604335     Delta-E=       -0.000000182969 Rises=F Damp=F
 DIIS: error= 2.39D-05 at cycle   3 NSaved=   3.
 NSaved= 3 IEnMin= 3 EnMin= -572.106345604335     IErMin= 3 ErrMin= 2.39D-05
 ErrMax= 2.39D-05  0.00D+00 EMaxC= 1.00D-01 BMatC= 6.47D-08 BMatP= 6.16D-08
 IDIUse=1 WtCom= 1.00D+00 WtEn= 0.00D+00
 Coeff-Com: -0.265D-02 0.359D+00 0.644D+00
 Coeff:     -0.265D-02 0.359D+00 0.644D+00
 Gap=     0.020 Goal=   None    Shift=    0.000
 RMSDP=1.64D-06 MaxDP=4.20D-05 DE=-1.83D-07 OVMax= 3.49D-04

 Cycle  21  Pass 1  IDiag  1:
 RMSU=  4.98D-07    CP:  1.00D+00  8.19D-01  7.52D-01
 E= -572.106345677733     Delta-E=       -0.000000073397 Rises=F Damp=F
 DIIS: error= 2.04D-06 at cycle   4 NSaved=   4.
 NSaved= 4 IEnMin= 4 EnMin= -572.106345677733     IErMin= 4 ErrMin= 2.04D-06
 ErrMax= 2.04D-06  0.00D+00 EMaxC= 1.00D-01 BMatC= 1.42D-09 BMatP= 6.16D-08
 IDIUse=1 WtCom= 1.00D+00 WtEn= 0.00D+00
 Coeff-Com: -0.102D-01 0.243D+00 0.406D+00 0.361D+00
 Coeff:     -0.102D-01 0.243D+00 0.406D+00 0.361D+00
 Gap=     0.020 Goal=   None    Shift=    0.000
 RMSDP=1.80D-07 MaxDP=5.08D-06 DE=-7.34D-08 OVMax= 2.95D-05

 Cycle  22  Pass 1  IDiag  1:
 RMSU=  1.09D-07    CP:  1.00D+00  8.27D-01  7.31D-01  1.12D+00
 E= -572.106345679359     Delta-E=       -0.000000001626 Rises=F Damp=F
 DIIS: error= 1.26D-06 at cycle   5 NSaved=   5.
 NSaved= 5 IEnMin= 5 EnMin= -572.106345679359     IErMin= 5 ErrMin= 1.26D-06
 ErrMax= 1.26D-06  0.00D+00 EMaxC= 1.00D-01 BMatC= 2.46D-10 BMatP= 1.42D-09
 IDIUse=1 WtCom= 1.00D+00 WtEn= 0.00D+00
 Coeff-Com: -0.592D-02 0.117D+00 0.166D+00 0.185D+00 0.538D+00
 Coeff:     -0.592D-02 0.117D+00 0.166D+00 0.185D+00 0.538D+00
 Gap=     0.020 Goal=   None    Shift=    0.000
 RMSDP=1.27D-07 MaxDP=3.96D-06 DE=-1.63D-09 OVMax= 2.68D-05

 Cycle  23  Pass 1  IDiag  1:
 RMSU=  4.26D-08    CP:  1.00D+00  8.30D-01  7.31D-01  1.36D+00  1.07D+00
 E= -572.106345679735     Delta-E=       -0.000000000376 Rises=F Damp=F
 DIIS: error= 7.85D-07 at cycle   6 NSaved=   6.
 NSaved= 6 IEnMin= 6 EnMin= -572.106345679735     IErMin= 6 ErrMin= 7.85D-07
 ErrMax= 7.85D-07  0.00D+00 EMaxC= 1.00D-01 BMatC= 1.17D-10 BMatP= 2.46D-10
 IDIUse=1 WtCom= 1.00D+00 WtEn= 0.00D+00
 Coeff-Com:  0.138D-02-0.446D-01-0.123D+00-0.116D+00 0.537D+00 0.744D+00
 Coeff:      0.138D-02-0.446D-01-0.123D+00-0.116D+00 0.537D+00 0.744D+00
 Gap=     0.020 Goal=   None    Shift=    0.000
 RMSDP=1.84D-07 MaxDP=5.52D-06 DE=-3.76D-10 OVMax= 4.37D-05

 Cycle  24  Pass 1  IDiag  1:
 RMSU=  2.81D-08    CP:  1.00D+00  8.32D-01  7.36D-01  1.69D+00  1.63D+00
                    CP:  1.13D+00
 E= -572.106345680026     Delta-E=       -0.000000000291 Rises=F Damp=F
 DIIS: error= 2.27D-07 at cycle   7 NSaved=   7.
 NSaved= 7 IEnMin= 7 EnMin= -572.106345680026     IErMin= 7 ErrMin= 2.27D-07
 ErrMax= 2.27D-07  0.00D+00 EMaxC= 1.00D-01 BMatC= 9.42D-12 BMatP= 1.17D-10
 IDIUse=1 WtCom= 1.00D+00 WtEn= 0.00D+00
 Coeff-Com:  0.185D-02-0.449D-01-0.101D+00-0.107D+00 0.197D+00 0.397D+00
 Coeff-Com:  0.658D+00
 Coeff:      0.185D-02-0.449D-01-0.101D+00-0.107D+00 0.197D+00 0.397D+00
 Coeff:      0.658D+00
 Gap=     0.020 Goal=   None    Shift=    0.000
 RMSDP=7.33D-08 MaxDP=2.33D-06 DE=-2.91D-10 OVMax= 1.75D-05

 Cycle  25  Pass 1  IDiag  1:
 RMSU=  9.08D-09    CP:  1.00D+00  8.33D-01  7.37D-01  1.83D+00  1.81D+00
                    CP:  1.37D+00  1.29D+00
 E= -572.106345680072     Delta-E=       -0.000000000046 Rises=F Damp=F
 DIIS: error= 7.62D-08 at cycle   8 NSaved=   8.
 NSaved= 8 IEnMin= 8 EnMin= -572.106345680072     IErMin= 8 ErrMin= 7.62D-08
 ErrMax= 7.62D-08  0.00D+00 EMaxC= 1.00D-01 BMatC= 7.47D-13 BMatP= 9.42D-12
 IDIUse=1 WtCom= 1.00D+00 WtEn= 0.00D+00
 Coeff-Com:  0.746D-03-0.168D-01-0.342D-01-0.389D-01 0.196D-01 0.870D-01
 Coeff-Com:  0.357D+00 0.626D+00
 Coeff:      0.746D-03-0.168D-01-0.342D-01-0.389D-01 0.196D-01 0.870D-01
 Coeff:      0.357D+00 0.626D+00
 Gap=     0.020 Goal=   None    Shift=    0.000
 RMSDP=2.46D-08 MaxDP=7.87D-07 DE=-4.57D-11 OVMax= 6.07D-06

 Cycle  26  Pass 1  IDiag  1:
 RMSU=  4.34D-09    CP:  1.00D+00  8.33D-01  7.38D-01  1.87D+00  1.89D+00
                    CP:  1.44D+00  1.48D+00  1.15D+00
 E= -572.106345680086     Delta-E=       -0.000000000014 Rises=F Damp=F
 DIIS: error= 3.49D-08 at cycle   9 NSaved=   9.
 NSaved= 9 IEnMin= 9 EnMin= -572.106345680086     IErMin= 9 ErrMin= 3.49D-08
 ErrMax= 3.49D-08  0.00D+00 EMaxC= 1.00D-01 BMatC= 2.19D-13 BMatP= 7.47D-13
 IDIUse=1 WtCom= 1.00D+00 WtEn= 0.00D+00
 Coeff-Com:  0.102D-03-0.165D-02-0.122D-02-0.227D-02-0.266D-01-0.262D-01
 Coeff-Com:  0.897D-01 0.394D+00 0.574D+00
 Coeff:      0.102D-03-0.165D-02-0.122D-02-0.227D-02-0.266D-01-0.262D-01
 Coeff:      0.897D-01 0.394D+00 0.574D+00
 Gap=     0.020 Goal=   None    Shift=    0.000
 RMSDP=9.67D-09 MaxDP=3.23D-07 DE=-1.43D-11 OVMax= 2.43D-06

 SCF Done:  E(RB3LYP) =  -572.106345680     A.U. after   26 cycles
            NFock= 26  Conv=0.97D-08     -V/T= 2.0046
 KE= 5.694880415360D+02 PE=-2.690069580139D+03 EE= 8.709055901165D+02
 Leave Link  502 at Wed May 18 10:36:17 2022, MaxMem= 26843545600 cpu:             434.5 elap:              19.8
 (Enter /data0/home/wuhanyu/software/g16/l601.exe)
 Copying SCF densities to generalized density rwf, IOpCl= 0 IROHF=0.

 **********************************************************************

            Population analysis using the SCF density.

 **********************************************************************

 Orbital symmetries:
       Occupied  (A) (A) (A) (A) (A) (A) (A) (A) (A) (A) (A) (A)
                 (A) (A) (A) (A) (A) (A) (A) (A) (A) (A) (A) (A)
                 (A) (A) (A) (A) (A) (A) (A) (A) (A) (A) (A) (A)
                 (A) (A) (A) (A) (A) (A) (A) (A) (A)
       Virtual   (A) (A) (A) (A) (A) (A) (A) (A) (A) (A) (A) (A)
                 (A) (A) (A) (A) (A) (A) (A) (A) (A) (A) (A) (A)
                 (A) (A) (A) (A) (A) (A) (A) (A) (A) (A) (A) (A)
                 (A) (A) (A) (A) (A) (A) (A) (A) (A) (A) (A) (A)
                 (A) (A) (A) (A) (A) (A) (A) (A) (A) (A) (A) (A)
                 (A) (A) (A) (A) (A) (A) (A) (A) (A) (A) (A) (A)
                 (A) (A) (A) (A) (A) (A) (A) (A) (A) (A) (A) (A)
                 (A) (A) (A) (A) (A) (A) (A) (A) (A) (A) (A) (A)
                 (A) (A) (A) (A) (A) (A) (A) (A) (A) (A) (A) (A)
                 (A) (A) (A) (A) (A) (A) (A) (A) (A) (A) (A) (A)
                 (A) (A) (A) (A) (A) (A) (A) (A) (A) (A) (A) (A)
                 (A) (A) (A) (A) (A) (A) (A) (A) (A) (A) (A) (A)
                 (A) (A) (A) (A) (A) (A) (A) (A) (A) (A) (A) (A)
                 (A) (A) (A) (A) (A) (A) (A) (A) (A) (A) (A) (A)
                 (A) (A) (A) (A) (A) (A) (A) (A) (A) (A) (A) (A)
                 (A) (A) (A) (A) (A) (A) (A) (A) (A) (A) (A) (A)
                 (A) (A) (A) (A) (A) (A) (A) (A) (A) (A) (A) (A)
                 (A) (A) (A) (A) (A) (A) (A) (A) (A) (A) (A) (A)
                 (A) (A) (A) (A) (A) (A) (A) (A) (A) (A) (A) (A)
                 (A) (A) (A) (A) (A) (A) (A) (A) (A) (A) (A) (A)
                 (A) (A) (A)
 The electronic state is 1-A.
 Alpha  occ. eigenvalues --  -18.95608 -18.95163 -14.47325 -14.46645 -10.33882
 Alpha  occ. eigenvalues --  -10.29353 -10.29296 -10.28701 -10.24735 -10.17239
 Alpha  occ. eigenvalues --  -10.16496 -10.12402  -1.10458  -1.00531  -0.90208
 Alpha  occ. eigenvalues --   -0.85699  -0.82612  -0.80830  -0.79101  -0.72874
 Alpha  occ. eigenvalues --   -0.68423  -0.67208  -0.61765  -0.60529  -0.55795
 Alpha  occ. eigenvalues --   -0.54509  -0.53904  -0.52901  -0.51867  -0.50443
 Alpha  occ. eigenvalues --   -0.48325  -0.46789  -0.44753  -0.41681  -0.39002
 Alpha  occ. eigenvalues --   -0.36841  -0.35766  -0.34366  -0.32329  -0.31654
 Alpha  occ. eigenvalues --   -0.27909  -0.26155  -0.14759  -0.14027  -0.11843
 Alpha virt. eigenvalues --   -0.09859  -0.05688  -0.01808   0.01240   0.01357
 Alpha virt. eigenvalues --    0.03226   0.03567   0.04830   0.05702   0.06108
 Alpha virt. eigenvalues --    0.07933   0.08106   0.09871   0.10453   0.13186
 Alpha virt. eigenvalues --    0.13748   0.14307   0.15704   0.17247   0.18394
 Alpha virt. eigenvalues --    0.19883   0.20898   0.21825   0.22497   0.25083
 Alpha virt. eigenvalues --    0.27165   0.28184   0.28583   0.30649   0.31611
 Alpha virt. eigenvalues --    0.32812   0.35394   0.36226   0.37051   0.37445
 Alpha virt. eigenvalues --    0.37829   0.39791   0.42456   0.43207   0.45281
 Alpha virt. eigenvalues --    0.45734   0.46784   0.47941   0.49287   0.50488
 Alpha virt. eigenvalues --    0.50625   0.52692   0.53603   0.54262   0.54740
 Alpha virt. eigenvalues --    0.56154   0.56713   0.57515   0.58107   0.59111
 Alpha virt. eigenvalues --    0.60306   0.61639   0.62579   0.63600   0.64264
 Alpha virt. eigenvalues --    0.65033   0.66483   0.67053   0.68146   0.69464
 Alpha virt. eigenvalues --    0.70789   0.72186   0.72795   0.75348   0.79998
 Alpha virt. eigenvalues --    0.81996   0.85984   0.87197   0.88580   0.89679
 Alpha virt. eigenvalues --    0.91206   0.94840   0.95514   0.97012   0.98294
 Alpha virt. eigenvalues --    1.01685   1.03156   1.05609   1.07137   1.08964
 Alpha virt. eigenvalues --    1.09452   1.12954   1.14126   1.17098   1.18664
 Alpha virt. eigenvalues --    1.21124   1.22157   1.25800   1.30198   1.32627
 Alpha virt. eigenvalues --    1.33697   1.36778   1.38018   1.38462   1.41099
 Alpha virt. eigenvalues --    1.41524   1.43534   1.44758   1.45543   1.46714
 Alpha virt. eigenvalues --    1.48193   1.49816   1.50506   1.51875   1.52272
 Alpha virt. eigenvalues --    1.53193   1.54981   1.56285   1.57556   1.58947
 Alpha virt. eigenvalues --    1.60971   1.62334   1.62903   1.65089   1.66873
 Alpha virt. eigenvalues --    1.67722   1.69041   1.70587   1.71121   1.72437
 Alpha virt. eigenvalues --    1.74511   1.76338   1.78066   1.78504   1.81012
 Alpha virt. eigenvalues --    1.84125   1.85935   1.87145   1.91382   1.91692
 Alpha virt. eigenvalues --    1.93631   1.96388   1.98125   2.00550   2.01644
 Alpha virt. eigenvalues --    2.04233   2.05934   2.08618   2.09599   2.11263
 Alpha virt. eigenvalues --    2.14117   2.16705   2.19653   2.21480   2.23638
 Alpha virt. eigenvalues --    2.23972   2.30332   2.30932   2.31786   2.33350
 Alpha virt. eigenvalues --    2.37505   2.39070   2.39535   2.41102   2.41354
 Alpha virt. eigenvalues --    2.42364   2.43316   2.45192   2.46681   2.48261
 Alpha virt. eigenvalues --    2.50457   2.51430   2.54676   2.55329   2.57822
 Alpha virt. eigenvalues --    2.59258   2.59781   2.61403   2.62945   2.63607
 Alpha virt. eigenvalues --    2.67153   2.68937   2.72230   2.72502   2.74102
 Alpha virt. eigenvalues --    2.76513   2.76871   2.78460   2.79799   2.84503
 Alpha virt. eigenvalues --    2.87688   2.91302   2.94332   2.97061   2.97954
 Alpha virt. eigenvalues --    3.00457   3.02881   3.03102   3.08062   3.14609
 Alpha virt. eigenvalues --    3.16346   3.20741   3.22194   3.32263   3.38306
 Alpha virt. eigenvalues --    3.40446   3.43167   3.45155   3.51063   3.57151
 Alpha virt. eigenvalues --    3.59141   3.63044   3.65701   3.67931   3.70100
 Alpha virt. eigenvalues --    3.73074   3.75384   3.79390   3.83665   3.88846
 Alpha virt. eigenvalues --    3.92623   3.99930   4.06282   4.20628   4.27916
 Alpha virt. eigenvalues --    4.31526   4.56985   4.82904   4.90255   4.98172
 Alpha virt. eigenvalues --    5.04808   5.05793   5.07546   5.15576   5.47768
 Alpha virt. eigenvalues --    5.80599  23.59680  23.67985  23.76003  23.80510
 Alpha virt. eigenvalues --   23.84865  23.90949  23.93807  23.95525  35.33115
 Alpha virt. eigenvalues --   35.44024  50.00751  50.10371
          Condensed to atoms (all electrons):
               1          2          3          4          5          6
     1  C    4.816801   0.588318  -0.126156   0.391209   0.409271  -0.033370
     2  C    0.588318   4.783130  -0.123989  -0.050978  -0.025553   0.414147
     3  C   -0.126156  -0.123989   4.799937   0.417653   0.005725   0.005282
     4  N    0.391209  -0.050978   0.417653   6.498345  -0.030116   0.002738
     5  H    0.409271  -0.025553   0.005725  -0.030116   0.485876  -0.001029
     6  H   -0.033370   0.414147   0.005282   0.002738  -0.001029   0.463270
     7  H    0.002925   0.003473   0.406660  -0.028537  -0.000155  -0.000065
     8  C   -0.043997   0.005872  -0.046728   0.264757  -0.004213  -0.000143
     9  H    0.004467  -0.000377  -0.005020  -0.021906   0.000020   0.000011
    10  H   -0.000482  -0.000181  -0.000784  -0.032887   0.000208  -0.000002
    11  H   -0.005324   0.000816   0.003736  -0.022205   0.001169   0.000006
    12  N   -0.046838   0.397297   0.421490  -0.048545   0.002891  -0.024334
    13  C    0.006030  -0.053569  -0.043277   0.003041  -0.000100  -0.006029
    14  H    0.000058  -0.000533  -0.002209  -0.000127   0.000003   0.000044
    15  H   -0.000390   0.005031  -0.005439  -0.000056   0.000006   0.000144
    16  C    0.000229  -0.004747   0.005726  -0.000132   0.000000   0.003154
    17  H   -0.000062   0.000557  -0.000577   0.000025  -0.000001   0.001252
    18  H    0.000518   0.002516   0.000527  -0.000176   0.000027  -0.003235
    19  C   -0.000017   0.000233  -0.000280   0.000003  -0.000000   0.000142
    20  H    0.000001  -0.000009   0.000010  -0.000000   0.000000  -0.000063
    21  H    0.000007  -0.000005  -0.000006   0.000000  -0.000000  -0.000041
    22  C   -0.000000  -0.000157   0.000160  -0.000004  -0.000000  -0.000056
    23  O   -0.000001   0.000041   0.000129  -0.000001  -0.000000  -0.000001
    24  O    0.000000  -0.000009   0.000001  -0.000000   0.000000  -0.000042
               7          8          9         10         11         12
     1  C    0.002925  -0.043997   0.004467  -0.000482  -0.005324  -0.046838
     2  C    0.003473   0.005872  -0.000377  -0.000181   0.000816   0.397297
     3  C    0.406660  -0.046728  -0.005020  -0.000784   0.003736   0.421490
     4  N   -0.028537   0.264757  -0.021906  -0.032887  -0.022205  -0.048545
     5  H   -0.000155  -0.004213   0.000020   0.000208   0.001169   0.002891
     6  H   -0.000065  -0.000143   0.000011  -0.000002   0.000006  -0.024334
     7  H    0.460725  -0.001570   0.001441   0.000126  -0.000125  -0.021927
     8  C   -0.001570   4.743715   0.405987   0.410696   0.407913   0.003691
     9  H    0.001441   0.405987   0.517910  -0.024512  -0.021621   0.000188
    10  H    0.000126   0.410696  -0.024512   0.499490  -0.024757  -0.000047
    11  H   -0.000125   0.407913  -0.021621  -0.024757   0.513531  -0.000212
    12  N   -0.021927   0.003691   0.000188  -0.000047  -0.000212   6.564007
    13  C   -0.001261  -0.000036  -0.000034   0.000011   0.000005   0.205982
    14  H    0.000143   0.000001  -0.000007   0.000002  -0.000000  -0.027742
    15  H    0.001478  -0.000014  -0.000041   0.000020  -0.000001  -0.028746
    16  C    0.000077   0.000008   0.000001  -0.000002  -0.000000  -0.035203
    17  H   -0.000001  -0.000000  -0.000000   0.000000   0.000000  -0.000301
    18  H    0.000011   0.000005   0.000000  -0.000000  -0.000000  -0.003545
    19  C    0.000005  -0.000000   0.000000  -0.000000   0.000000   0.005395
    20  H   -0.000000   0.000000   0.000000  -0.000000   0.000000  -0.000173
    21  H   -0.000007  -0.000000  -0.000000   0.000000   0.000000   0.000981
    22  C    0.000002  -0.000000  -0.000000   0.000000  -0.000000  -0.000720
    23  O    0.000009  -0.000000  -0.000000   0.000000  -0.000000  -0.000397
    24  O   -0.000000  -0.000000  -0.000000   0.000000  -0.000000   0.000001
              13         14         15         16         17         18
     1  C    0.006030   0.000058  -0.000390   0.000229  -0.000062   0.000518
     2  C   -0.053569  -0.000533   0.005031  -0.004747   0.000557   0.002516
     3  C   -0.043277  -0.002209  -0.005439   0.005726  -0.000577   0.000527
     4  N    0.003041  -0.000127  -0.000056  -0.000132   0.000025  -0.000176
     5  H   -0.000100   0.000003   0.000006   0.000000  -0.000001   0.000027
     6  H   -0.006029   0.000044   0.000144   0.003154   0.001252  -0.003235
     7  H   -0.001261   0.000143   0.001478   0.000077  -0.000001   0.000011
     8  C   -0.000036   0.000001  -0.000014   0.000008  -0.000000   0.000005
     9  H   -0.000034  -0.000007  -0.000041   0.000001  -0.000000   0.000000
    10  H    0.000011   0.000002   0.000020  -0.000002   0.000000  -0.000000
    11  H    0.000005  -0.000000  -0.000001  -0.000000   0.000000  -0.000000
    12  N    0.205982  -0.027742  -0.028746  -0.035203  -0.000301  -0.003545
    13  C    4.971739   0.393142   0.393230   0.290643  -0.038366  -0.044357
    14  H    0.393142   0.542088  -0.025388  -0.033663  -0.013113   0.006544
    15  H    0.393230  -0.025388   0.530073  -0.027848   0.007994  -0.001075
    16  C    0.290643  -0.033663  -0.027848   5.121411   0.399521   0.396171
    17  H   -0.038366  -0.013113   0.007994   0.399521   0.593925  -0.035773
    18  H   -0.044357   0.006544  -0.001075   0.396171  -0.035773   0.547885
    19  C   -0.058978   0.004218  -0.016016   0.317778  -0.023048  -0.040463
    20  H    0.003641   0.000425   0.001087  -0.025234  -0.017875   0.007315
    21  H   -0.006067   0.001895  -0.000282  -0.064871   0.000148   0.011057
    22  C    0.002409  -0.000082   0.007517  -0.048550   0.004905  -0.004038
    23  O    0.000197   0.000079   0.010341   0.002785  -0.000264   0.003985
    24  O    0.000361   0.000011   0.000177  -0.003313  -0.001358   0.012489
              19         20         21         22         23         24
     1  C   -0.000017   0.000001   0.000007  -0.000000  -0.000001   0.000000
     2  C    0.000233  -0.000009  -0.000005  -0.000157   0.000041  -0.000009
     3  C   -0.000280   0.000010  -0.000006   0.000160   0.000129   0.000001
     4  N    0.000003  -0.000000   0.000000  -0.000004  -0.000001  -0.000000
     5  H   -0.000000   0.000000  -0.000000  -0.000000  -0.000000   0.000000
     6  H    0.000142  -0.000063  -0.000041  -0.000056  -0.000001  -0.000042
     7  H    0.000005  -0.000000  -0.000007   0.000002   0.000009  -0.000000
     8  C   -0.000000   0.000000  -0.000000  -0.000000  -0.000000  -0.000000
     9  H    0.000000   0.000000  -0.000000  -0.000000  -0.000000  -0.000000
    10  H   -0.000000  -0.000000   0.000000   0.000000   0.000000   0.000000
    11  H    0.000000   0.000000   0.000000  -0.000000  -0.000000  -0.000000
    12  N    0.005395  -0.000173   0.000981  -0.000720  -0.000397   0.000001
    13  C   -0.058978   0.003641  -0.006067   0.002409   0.000197   0.000361
    14  H    0.004218   0.000425   0.001895  -0.000082   0.000079   0.000011
    15  H   -0.016016   0.001087  -0.000282   0.007517   0.010341   0.000177
    16  C    0.317778  -0.025234  -0.064871  -0.048550   0.002785  -0.003313
    17  H   -0.023048  -0.017875   0.000148   0.004905  -0.000264  -0.001358
    18  H   -0.040463   0.007315   0.011057  -0.004038   0.003985   0.012489
    19  C    5.389494   0.343877   0.362967   0.156390  -0.120562  -0.111442
    20  H    0.343877   0.594044  -0.027576  -0.011984   0.006757   0.016032
    21  H    0.362967  -0.027576   0.631553  -0.021962   0.014510   0.005742
    22  C    0.156390  -0.011984  -0.021962   4.536824   0.556769   0.572815
    23  O   -0.120562   0.006757   0.014510   0.556769   8.138947  -0.103681
    24  O   -0.111442   0.016032   0.005742   0.572815  -0.103681   8.106542
 Mulliken charges:
               1
     1  C    0.036804
     2  C    0.058678
     3  C    0.287428
     4  N   -0.342103
     5  H    0.155971
     6  H    0.178219
     7  H    0.176574
     8  C   -0.145944
     9  H    0.143492
    10  H    0.173100
    11  H    0.147068
    12  N   -0.363192
    13  C   -0.018355
    14  H    0.154209
    15  H    0.148196
    16  C   -0.293943
    17  H    0.122411
    18  H    0.143612
    19  C   -0.209698
    20  H    0.109724
    21  H    0.091956
    22  C    0.249762
    23  O   -0.509643
    24  O   -0.494326
 Sum of Mulliken charges =  -0.00000
 Mulliken charges with hydrogens summed into heavy atoms:
               1
     1  C    0.192775
     2  C    0.236897
     3  C    0.464001
     4  N   -0.342103
     8  C    0.317716
    12  N   -0.363192
    13  C    0.284050
    16  C   -0.027920
    19  C   -0.008018
    22  C    0.249762
    23  O   -0.509643
    24  O   -0.494326
 Electronic spatial extent (au):  <R**2>=           2960.5172
 Charge=              0.0000 electrons
 Dipole moment (field-independent basis, Debye):
    X=             20.3034    Y=             -5.9889    Z=             -2.2186  Tot=             21.2842
 Quadrupole moment (field-independent basis, Debye-Ang):
   XX=            -84.5362   YY=            -77.7279   ZZ=            -66.3053
   XY=             25.7392   XZ=              9.4088   YZ=             -2.0205
 Traceless Quadrupole moment (field-independent basis, Debye-Ang):
   XX=             -8.3464   YY=             -1.5381   ZZ=              9.8845
   XY=             25.7392   XZ=              9.4088   YZ=             -2.0205
 Octapole moment (field-independent basis, Debye-Ang**2):
  XXX=            272.5548  YYY=            -12.0072  ZZZ=             -2.6736  XYY=             33.6391
  XXY=            -21.2732  XXZ=            -35.7863  XZZ=             36.7263  YZZ=             -4.9751
  YYZ=              3.0354  XYZ=             -2.1569
 Hexadecapole moment (field-independent basis, Debye-Ang**3):
 XXXX=          -3080.9303 YYYY=           -494.8789 ZZZZ=           -328.2939 XXXY=            291.3939
 XXXZ=            173.9049 YYYX=             64.5996 YYYZ=              7.2674 ZZZX=             16.3578
 ZZZY=            -16.5212 XXYY=           -632.9289 XXZZ=           -571.5089 YYZZ=           -140.8187
 XXYZ=            -30.4129 YYXZ=            -11.9713 ZZXY=             14.0717
 N-N= 6.775696028061D+02 E-N=-2.690069582256D+03  KE= 5.694880415360D+02
 No NMR shielding tensors so no spin-rotation constants.
 Leave Link  601 at Wed May 18 10:36:17 2022, MaxMem= 26843545600 cpu:               2.3 elap:               0.1
 (Enter /data0/home/wuhanyu/software/g16/l701.exe)
 ... and contract with generalized density number  0.
 Compute integral first derivatives.
 R6Disp: Adding Grimme-D3(BJ) dispersion energy 1st derivatives to the gradient.
 Leave Link  701 at Wed May 18 10:36:17 2022, MaxMem= 26843545600 cpu:               3.0 elap:               0.2
 (Enter /data0/home/wuhanyu/software/g16/l702.exe)
 L702 exits ... SP integral derivatives will be done elsewhere.
 Leave Link  702 at Wed May 18 10:36:17 2022, MaxMem= 26843545600 cpu:               0.4 elap:               0.0
 (Enter /data0/home/wuhanyu/software/g16/l703.exe)
 Integral derivatives from FoFJK, PRISM(SPDF).
 Compute integral first derivatives, UseDBF=F ICtDFT=           0.
 Calling FoFJK, ICntrl=      2127 FMM=F ISym2X=0 I1Cent= 0 IOpClX= 0 NMat=1 NMatS=1 NMatT=0.
 FoFJK:  IHMeth= 1 ICntrl=    2127 DoSepK=F KAlg= 0 I1Cent=           0 FoldK=F
 IRaf=         0 NMat=       1 IRICut=       1 DoRegI=T DoRafI=F ISym2E= 0 IDoP0=0 IntGTp=1.
 FoFCou: FMM=F IPFlag=           0 FMFlag=      100000 FMFlg1=         800
         NFxFlg=           0 DoJE=F BraDBF=F KetDBF=F FulRan=T
         wScrn=  0.000000 ICntrl=      2127 IOpCl=  0 I1Cent=           0 NGrid=           0
         NMat0=    1 NMatS0=      1 NMatT0=    0 NMatD0=    1 NMtDS0=    0 NMtDT0=    0
 Symmetry not used in FoFCou.
 Leave Link  703 at Wed May 18 10:36:20 2022, MaxMem= 26843545600 cpu:              62.4 elap:               2.9
 (Enter /data0/home/wuhanyu/software/g16/l716.exe)
 Dipole        = 7.98795908D+00-2.35619695D+00-8.72877246D-01
 ***** Axes restored to original set *****
 -------------------------------------------------------------------
 Center     Atomic                   Forces (Hartrees/Bohr)
 Number     Number              X              Y              Z
 -------------------------------------------------------------------
      1        6           0.027354892    0.009895654    0.000359218
      2        6          -0.031969195    0.030106615   -0.000235305
      3        6           0.003147150   -0.046549483    0.000919961
      4        7           0.038326986    0.007541051    0.004138214
      5        1           0.006476983    0.006529815   -0.000475213
      6        1           0.001861827    0.010999129   -0.000683952
      7        1           0.009457348   -0.008686453   -0.000462993
      8        6           0.016359309   -0.002953944   -0.003371401
      9        1          -0.000543658    0.011314743    0.006419555
     10        1          -0.004895752    0.000941593   -0.013755816
     11        1          -0.005538731   -0.008944775    0.007329036
     12        7          -0.066175692   -0.005523435    0.004044927
     13        6           0.001789172   -0.023336981   -0.011135984
     14        1           0.000202312    0.004149650    0.015456127
     15        1          -0.007049445    0.010158727   -0.008180633
     16        6           0.005062906    0.023915051   -0.000233256
     17        1           0.003732951   -0.011308888    0.010724540
     18        1          -0.004449052   -0.009406190   -0.008936608
     19        6          -0.007730571   -0.014046491   -0.011060952
     20        1           0.013282188   -0.004467375    0.000355073
     21        1           0.002631068    0.015240111    0.001485144
     22        6          -0.011826366   -0.014251084   -0.093787396
     23        8           0.023048651   -0.017184831    0.049791143
     24        8          -0.012555280    0.035867791    0.051296571
 -------------------------------------------------------------------
 Cartesian Forces:  Max     0.093787396 RMS     0.020969541
 Leave Link  716 at Wed May 18 10:36:20 2022, MaxMem= 26843545600 cpu:               0.5 elap:               0.0
 (Enter /data0/home/wuhanyu/software/g16/l103.exe)

 GradGradGradGradGradGradGradGradGradGradGradGradGradGradGradGradGradGrad
 Berny optimization.
 FormGI is forming the generalized inverse of G from B-inverse, IUseBI=4.
 Internal  Forces:  Max     0.057906331 RMS     0.013322493
 Search for a local minimum.
 Step number   1 out of a maximum of  132
 All quantities printed in internal units (Hartrees-Bohrs-Radians)
 RMS Force = .13322D-01 SwitMx=.10000D-02 MixMth= 1
 Mixed Optimization -- RFO/linear search
 Second derivative matrix not updated -- first step.
 ITU=  0
     Eigenvalues ---    0.00237   0.00237   0.00237   0.00237   0.00766
     Eigenvalues ---    0.00766   0.01143   0.01328   0.01525   0.01666
     Eigenvalues ---    0.01727   0.01828   0.01956   0.03840   0.04356
     Eigenvalues ---    0.04502   0.04896   0.05410   0.05496   0.07537
     Eigenvalues ---    0.07537   0.07655   0.08669   0.08860   0.11701
     Eigenvalues ---    0.12376   0.12453   0.16000   0.16000   0.16000
     Eigenvalues ---    0.16000   0.16000   0.16000   0.21948   0.21983
     Eigenvalues ---    0.21985   0.22805   0.23560   0.25000   0.25000
     Eigenvalues ---    0.25000   0.25000   0.28519   0.28519   0.28519
     Eigenvalues ---    0.34897   0.34902   0.35418   0.35740   0.35740
     Eigenvalues ---    0.37230   0.37230   0.37230   0.37230   0.37230
     Eigenvalues ---    0.37230   0.37230   0.37230   0.37230   0.37997
     Eigenvalues ---    0.40432   0.44318   0.45714   0.46622   0.66833
     Eigenvalues ---    0.66833
 RFO step:  Lambda=-5.17638905D-02 EMin= 2.36824159D-03
 Linear search not attempted -- first point.
 Maximum step size (   0.300) exceeded in Quadratic search.
    -- Step size scaled by   0.866
 Iteration  1 RMS(Cart)=  0.08537049 RMS(Int)=  0.00360415
 Iteration  2 RMS(Cart)=  0.00404178 RMS(Int)=  0.00043739
 Iteration  3 RMS(Cart)=  0.00000905 RMS(Int)=  0.00043733
 Iteration  4 RMS(Cart)=  0.00000001 RMS(Int)=  0.00043733
 ITry= 1 IFail=0 DXMaxC= 4.32D-01 DCOld= 1.00D+10 DXMaxT= 3.00D-01 DXLimC= 3.00D+00 Rises=F
 Variable       Old X    -DE/DX   Delta X   Delta X   Delta X     New X
                                 (Linear)    (Quad)   (Total)
    R1        2.64892  -0.04211   0.00000  -0.07042  -0.07048   2.57844
    R2        2.63012  -0.01851   0.00000  -0.02876  -0.02897   2.60115
    R3        2.05842  -0.00917   0.00000  -0.01983  -0.01983   2.03859
    R4        2.05001  -0.00772   0.00000  -0.01649  -0.01649   2.03353
    R5        2.71151  -0.04253   0.00000  -0.08207  -0.08190   2.62961
    R6        2.63013  -0.04310   0.00000  -0.07207  -0.07213   2.55800
    R7        2.05835  -0.00961   0.00000  -0.02077  -0.02077   2.03758
    R8        2.64911  -0.05694   0.00000  -0.10008  -0.09991   2.54920
    R9        2.77790  -0.00498   0.00000  -0.01054  -0.01054   2.76736
   R10        2.02201   0.01298   0.00000   0.02653   0.02653   2.04854
   R11        2.02201   0.01463   0.00000   0.02988   0.02988   2.05189
   R12        2.02201   0.01266   0.00000   0.02588   0.02588   2.04788
   R13        2.77790   0.00423   0.00000   0.00895   0.00895   2.78685
   R14        2.02201   0.01515   0.00000   0.03095   0.03095   2.05295
   R15        2.02201   0.01251   0.00000   0.02555   0.02555   2.04756
   R16        2.91018   0.00387   0.00000   0.00994   0.00994   2.92012
   R17        2.02201   0.01522   0.00000   0.03110   0.03110   2.05310
   R18        2.02201   0.01323   0.00000   0.02704   0.02704   2.04905
   R19        2.91018   0.00614   0.00000   0.01579   0.01579   2.92597
   R20        2.02201   0.01385   0.00000   0.02830   0.02830   2.05031
   R21        2.02201   0.01513   0.00000   0.03091   0.03091   2.05292
   R22        2.91018  -0.00738   0.00000  -0.01897  -0.01897   2.89120
   R23        2.45910  -0.04848   0.00000  -0.05833  -0.05833   2.40077
[...]
 17,0.00384626,-0.00194980,-0.00205612,-0.00053611,0.00009344,-0.000141
 40,-0.00020402,-0.00007468,-0.00016703,0.00034688,-0.00007319,0.000310
 29,-0.00008453,0.00026437,-0.00046461,-0.00019465,0.00005194,0.0000289
 1,0.00004644,-0.00002020,0.00002321,-0.00002324,-0.00007481,0.00000250
 ,-0.00003696,-0.03553018,0.01833168,0.02218433,-0.08507788,0.01318974,
 0.02265884,0.00354247,-0.00416005,-0.00449197,0.00462803,-0.00076186,-
 0.00376207,0.56284240,-0.00081441,0.00042707,-0.00128366,-0.00091054,0
 .00083846,0.00062834,0.00174765,0.00017432,0.00090442,-0.00140464,-0.0
 0109300,0.00059578,0.00002799,-0.00009817,-0.00022433,0.00004502,0.000
 20760,0.00043212,-0.00010046,-0.00029208,-0.00007453,0.00008016,-0.000
 08609,0.00002488,-0.00000655,0.00001853,0.00000354,0.00005045,0.000040
 91,-0.00001810,-0.00003062,0.00000321,0.00000026,0.00312210,0.00228377
 ,0.00300126,0.01908838,-0.10560975,-0.03191159,-0.00448165,0.00606980,
 0.00794251,0.01478820,-0.01525621,-0.02471334,0.03161914,0.52291367,-0
 .00167410,0.00041149,-0.00104903,0.00032757,0.00082905,-0.00014495,0.0
 0024827,0.00176464,0.00199150,-0.00232000,-0.00220816,-0.00061913,-0.0
 0001670,0.00000303,-0.00014768,0.00000869,0.00007447,0.00018186,-0.000
 88582,-0.00058779,0.00121002,0.00045225,-0.00039995,0.00049907,-0.0000
 2473,0.00005903,-0.00002950,-0.00022323,0.00001125,-0.00011433,-0.0000
 6797,0.00002804,-0.00008852,0.00609059,0.00257258,0.00483074,0.0221654
 4,-0.03141849,-0.12119820,0.01380762,-0.01704842,-0.01918233,0.0001314
 9,-0.00138983,0.00139938,0.05528935,0.00254272,0.43064415,-0.00024511,
 0.00013410,-0.00021804,0.00034295,0.00090105,-0.00014687,0.00112103,-0
 .00024417,0.00094809,-0.00085477,-0.00053499,-0.00004756,-0.00001015,0
 .00000100,-0.00002351,-0.00006922,-0.00002768,-0.00004507,-0.00009491,
 -0.00008789,0.00015252,0.00024850,-0.00013703,0.00006668,-0.00001597,0
 .00002270,-0.00000422,-0.00004320,0.00001020,-0.00003700,-0.00002402,-
 0.00000653,-0.00001703,-0.00192794,0.00209345,0.00201508,-0.01426053,0
 .00148197,-0.00533180,0.00072590,-0.00053749,0.00051785,-0.00019610,0.
 00030777,0.00029911,-0.26376729,0.04745560,-0.07840033,0.28687008,0.00
 044477,-0.00019368,0.00044348,-0.00021092,0.00000233,-0.00008566,-0.00
 010759,-0.00039421,0.00007456,0.00059999,0.00072026,-0.00003518,-0.000
 00784,0.00001221,0.00003209,-0.00000847,-0.00001620,-0.00012521,0.0000
 2237,-0.00004922,-0.00010621,-0.00008597,0.00010805,-0.00011411,-0.000
 01154,-0.00001299,0.00000823,-0.00003513,-0.00001311,0.00002559,0.0000
 2766,-0.00000268,0.00000353,0.00051310,-0.00162894,-0.00175527,0.01659
 274,-0.00363982,0.00431958,-0.00029798,0.00144500,0.00035247,-0.000333
 29,-0.00052167,0.00002638,0.04782876,-0.05773702,0.01547526,-0.0525535
 6,0.05906056,0.00055699,-0.00019536,0.00034957,-0.00041833,-0.00091366
 ,0.00001137,-0.00035077,0.00030163,-0.00183513,0.00060644,0.00059565,0
 .00043364,0.00001978,0.00000747,0.00006307,0.00001244,-0.00000230,-0.0
 0007126,0.00046325,0.00036311,-0.00051837,-0.00008918,0.00015626,0.000
 01992,0.00001135,-0.00001428,-0.00000937,0.00019765,-0.00000504,0.0000
 0154,0.00002151,-0.00001744,0.00005342,0.00513304,-0.00364244,-0.00228
 617,0.02113879,-0.00360127,0.00494948,0.00081056,0.00072234,0.00129663
 ,-0.00038682,-0.00033105,-0.00001722,-0.08263585,0.01512781,-0.0736415
 7,0.08411162,-0.01883998,0.08639770,-0.00010476,-0.00002946,0.00003555
 ,-0.00005574,-0.00037699,0.00050196,-0.00028875,0.00015112,-0.00003197
 ,0.00026208,0.00011575,-0.00004395,-0.00001397,0.00003427,0.00007991,-
 0.00008201,0.00002555,0.00007660,-0.00001540,-0.00004939,0.00010565,-0
 .00003869,0.00003832,-0.00004978,0.00000679,-0.00000811,0.00000315,-0.
 00005148,-0.00001409,0.00001227,0.00001902,0.00000002,-0.00000656,0.00
 196577,0.00139509,-0.00009289,0.00442677,0.01743821,0.00451664,0.00010
 384,-0.00042010,-0.00026420,-0.00158415,0.00224664,0.00250510,-0.10660
 973,-0.10976870,-0.01905258,-0.01356691,-0.02607118,-0.00453673,0.1155
 9442,0.00054216,-0.00004433,0.00041711,0.00016623,0.00035798,0.0000304
 5,0.00028207,-0.00029156,0.00001239,-0.00014795,0.00046053,-0.00030020
 ,0.00000705,0.00002372,0.00003745,-0.00006347,0.00002463,-0.00025976,-
 0.00019090,-0.00010584,0.00007397,0.00017650,-0.00006296,-0.00004026,-
 0.00002352,0.00001178,0.00000121,-0.00004363,-0.00000383,-0.00002488,-
 0.00000004,-0.00000376,-0.00000104,-0.00197458,0.00130815,0.00113656,-
 0.00625570,-0.01807032,-0.00437820,0.00038887,-0.00021962,-0.00048414,
 0.00133639,-0.00046787,-0.00277728,-0.10541245,-0.24051871,-0.03174487
 ,0.00294552,0.00746372,0.00114726,0.11700949,0.26234942,0.00035877,0.0
 0007284,0.00015956,0.00016607,0.00008783,0.00020549,-0.00002257,0.0000
 3774,0.00050235,0.00002622,0.00017882,-0.00016640,0.00001927,-0.000030
 12,-0.00002627,0.00022509,-0.00000839,-0.00039905,-0.00001119,-0.00004
 759,-0.00007853,0.00007015,0.00001262,-0.00003230,-0.00001407,0.000000
 84,-0.00001031,-0.00007837,0.00000490,-0.00000470,0.00000299,0.0000023
 1,0.00000001,-0.00153064,0.00051175,0.00127063,-0.00983732,-0.02218424
 ,-0.00490694,0.00007175,0.00027421,-0.00013256,0.00203617,-0.00096029,
 -0.00293959,-0.01703480,-0.03280997,-0.05004078,-0.00467387,-0.0092974
 8,-0.00215327,0.01360039,0.03593706,0.06029997,0.00008093,0.00009928,0
 .00026588,0.00001693,0.00012015,-0.00002668,-0.00035598,-0.00121314,-0
 .00010200,0.00115748,0.00069034,0.00013624,0.00000064,0.00001344,0.000
 01229,0.00002278,0.00001571,-0.00008678,0.00009134,0.00026383,-0.00069
 871,-0.00035639,0.00009881,-0.00048109,0.00003615,-0.00001498,0.000061
 90,0.00046225,0.00004790,0.00007235,0.00001081,-0.00002330,0.00010856,
 -0.00152536,-0.00049805,-0.00010547,0.00106281,-0.00804134,0.01066816,
 -0.00015815,0.00111682,0.00152288,0.00089764,-0.00012784,-0.00106039,-
 0.07793970,-0.00650671,0.01119310,0.00395573,0.01521837,-0.02723834,-0
 .00187641,-0.00806739,0.01549800,0.49151024,0.00044581,0.00012975,0.00
 026192,-0.00046067,-0.00048725,0.00024166,-0.00002952,0.00100619,-0.00
 221121,-0.00071953,0.00017173,-0.00026447,0.00000329,0.00004501,0.0000
 3678,0.00004989,-0.00001169,-0.00018095,-0.00074240,-0.00108054,0.0017
 7620,-0.00007764,-0.00012683,0.00027135,-0.00001958,0.00000366,-0.0000
 0343,0.00048490,-0.00001072,-0.00020806,-0.00003168,0.00002106,0.00003
 932,0.00173265,0.00011296,0.00047927,-0.00232282,0.01075447,-0.0158844
 6,0.00221381,-0.00201175,-0.00412224,0.00058808,0.00081114,-0.00025677
 ,0.00035357,-0.09958521,0.03862305,-0.00179554,-0.00546833,0.00822492,
 -0.00227207,-0.01426271,0.02650824,0.05422048,0.56343801,0.00019394,-0
 .00020496,0.00007865,0.00013279,-0.00023862,-0.00004890,-0.00011495,-0
 .00022622,-0.00059473,-0.00023808,0.00013575,0.00032182,0.00000324,-0.
 00001969,0.00002665,-0.00001627,-0.00008351,-0.00008520,0.00061407,0.0
 0018988,-0.00006475,0.00019501,-0.00002748,0.00022566,-0.00001264,0.00
 001824,0.00000244,0.00026286,-0.00006848,0.00006885,-0.00003038,-0.000
 00750,0.00003402,-0.00119734,0.00010819,0.00068261,0.00359967,0.005381
 06,-0.02678613,0.00214138,-0.00108751,-0.00142036,-0.00072911,0.001540
 55,0.00098201,-0.00203907,0.04188424,-0.13895904,0.00141604,0.00874501
 ,-0.01223057,0.00133011,0.00010242,0.00072146,-0.02496041,0.09039652,0
 .45212530,-0.00003410,0.00001278,-0.00005653,0.00005711,-0.00003391,-0
 .00001826,0.00003467,0.00015636,0.00020266,-0.00002617,-0.00015147,-0.
 00001527,-0.00000630,-0.00000572,0.00001309,-0.00000088,0.00000005,0.0
 0002502,0.00020369,0.00023654,-0.00041675,0.00002405,-0.00000233,0.000
 01908,0.00000827,-0.00000353,-0.00001330,-0.00002777,0.00002329,-0.000
 00768,-0.00000921,-0.00000517,0.00000319,0.00035478,0.00010720,-0.0003
 5735,0.00067605,-0.00026284,0.00100336,-0.00015144,0.00016306,0.000191
 49,-0.00014071,0.00008068,-0.00009571,-0.00129364,0.00050392,0.0017973
 4,0.00000691,-0.00029294,0.00018954,0.00045167,0.00019694,0.00040682,-
 0.06628393,0.04027776,0.04797239,0.06508815,-0.00006862,0.00003684,-0.
 00004412,0.00010716,0.00018108,-0.00003655,0.00009528,-0.00017705,0.00
 019597,0.00002392,0.00006289,-0.00005328,-0.00000510,0.00001056,-0.000
 00583,-0.00000193,0.00001617,0.00001518,-0.00031286,-0.00036466,0.0005
 1641,-0.00003084,0.00000241,-0.00004774,-0.00001528,0.00000121,0.00001
 429,-0.00002097,-0.00002108,0.00001484,0.00000715,0.00000992,-0.000009
 56,-0.00021407,0.00004986,-0.00024649,0.00036350,-0.00124634,0.0035409
 4,-0.00035062,0.00049402,0.00079964,-0.00004433,-0.00002010,0.00026268
 ,-0.00590481,0.01006061,0.01424713,0.00021667,0.00027466,-0.00078744,-
 0.00022921,0.00148765,-0.00029120,0.04358058,-0.16094342,-0.12739325,-
 0.04763551,0.17490609,0.00016051,0.00001769,0.00009536,-0.00008239,-0.
 00028673,0.00010962,-0.00038409,0.00004757,-0.00043272,0.00035814,0.00
 014865,0.00004747,0.00002032,-0.00000866,0.00001069,-0.00000929,-0.000
 04114,-0.00002264,0.00006019,0.00011830,-0.00015331,-0.00008095,0.0000
 4330,-0.00006439,0.00001072,-0.00000869,0.00000620,0.00001768,-0.00001
 237,0.00000959,0.00001577,0.00000068,0.00000647,0.00016015,0.00006573,
 0.00018691,-0.00140148,0.00352126,-0.00437981,0.00085889,-0.00068266,-
 0.00116718,-0.00013475,0.00030570,0.00045758,0.00911709,-0.01828004,-0
 .02137028,-0.00058070,-0.00018878,0.00027755,0.00050160,-0.00025023,0.
 00148188,0.04724504,-0.12321233,-0.17370564,-0.05226861,0.13206918,0.1
 9264160,0.00014322,-0.00002158,0.00001177,-0.00010985,-0.00005553,0.00
 005365,0.00026576,-0.00003528,-0.00095894,-0.00031759,0.00017219,0.000
 06968,0.00000712,0.00000858,0.00000485,-0.00000137,-0.00001359,-0.0000
 0458,-0.00018506,-0.00022153,0.00031156,0.00001170,-0.00007430,0.00004
 666,-0.00000477,0.00000972,0.00001034,0.00031460,0.00000582,-0.0000639
 2,-0.00002285,-0.00000528,0.00004046,0.00026481,0.00011143,0.00014909,
 -0.00030208,-0.00049691,-0.00013503,-0.00000332,0.00012922,0.00006449,
 -0.00034736,0.00009386,0.00048848,-0.00043230,0.00118636,-0.00073996,0
 .00106345,0.00015826,0.00054111,0.00094904,0.00036326,-0.00057208,-0.1
 6935693,-0.12797405,-0.00715916,0.00662889,0.00680076,-0.00055898,0.18
 294547,0.00003275,-0.00003039,0.00004225,0.00004292,0.00000073,-0.0000
 4014,0.00004767,0.00004228,0.00016405,-0.00008082,0.00000862,-0.000051
 29,0.00000184,-0.00000015,-0.00000403,0.00001232,0.00000018,-0.0000606
 3,-0.00002958,-0.00000879,-0.00000245,0.00008188,-0.00002064,0.0000243
 7,-0.00000536,0.00000650,-0.00000362,-0.00005935,0.00000378,0.00000280
 ,-0.00000052,-0.00000199,-0.00000592,0.00004445,0.00008698,-0.00010059
 ,0.00055062,0.00023627,-0.00008565,0.00000589,0.00007022,0.00007554,-0
 .00036458,0.00035039,0.00024032,-0.00985690,-0.01234548,0.00018141,0.0
 0043769,0.00047157,0.00000369,0.00011044,-0.00023710,0.00312158,-0.131
 74782,-0.18516018,-0.01468078,-0.01353994,-0.01337349,-0.00052771,0.14
 165340,0.20063237,-0.00005113,-0.00001918,-0.00009192,-0.00002745,-0.0
 0007816,-0.00004674,0.00004453,-0.00000170,-0.00046004,-0.00006074,-0.
 00002078,0.00011570,-0.00000410,0.00000068,-0.00000245,-0.00003914,-0.
 00000511,0.00009988,0.00002933,0.00006170,0.00003672,-0.00006166,-0.00
 001551,0.00000263,0.00000724,-0.00000036,0.00000748,0.00014889,0.00000
 768,0.00000637,-0.00000862,-0.00000284,0.00001886,0.00006714,-0.000194
 95,0.00022444,-0.00028991,0.00120083,0.00146837,-0.00019842,-0.0001357
 8,0.00008895,0.00009968,-0.00067183,-0.00021527,0.02065449,0.02379723,
 -0.00094369,-0.00008931,-0.00068946,0.00166642,0.00082039,0.00295327,-
 0.00494556,-0.00956917,-0.01538531,-0.04970452,-0.01669726,-0.01522703
 ,-0.00049917,0.01193157,0.01036525,0.05399652,-0.00198126,0.00035319,0
 .00004133,0.00076256,0.00195461,0.00006520,-0.00858319,0.00321786,0.02
 212480,0.00067833,-0.00320730,-0.00275431,-0.00009342,-0.00008982,-0.0
 0017693,0.00027754,0.00014243,-0.00029373,-0.00150739,0.00508002,0.004
 49696,-0.00090237,0.00057983,0.00096791,-0.00000650,-0.00007000,-0.000
 10623,-0.00205211,-0.00040802,-0.00014195,0.00012926,0.00008705,-0.000
 45180,-0.00124174,-0.00144648,-0.00441800,0.00546182,0.00193054,0.0035
 4337,-0.00147925,0.00016177,0.00112771,0.00005026,-0.00070757,-0.00037
 702,0.00632608,0.00591194,-0.01596174,-0.00046812,-0.00312561,0.005675
 60,0.00042205,-0.00363310,0.00273780,-0.12508191,0.02081381,-0.0054096
 5,-0.00198448,-0.00120306,-0.00246556,-0.01615617,0.00798045,-0.004286
 13,0.60264556,-0.00266416,-0.00164045,0.00099365,0.00048090,-0.0006069
 7,0.00125317,-0.01284403,0.00427621,0.02311219,0.00782991,-0.00549609,
 -0.00097595,0.00008376,-0.00060521,0.00005178,-0.00012470,-0.00020412,
 0.00014247,0.02032480,0.01206216,-0.02087190,-0.00041679,0.00142354,-0
 .00056893,0.00051124,-0.00019690,-0.00040588,-0.00437863,0.00062830,0.
 00078786,0.00017513,-0.00018868,-0.00041343,-0.00335465,-0.00169249,-0
 .00649227,0.00369544,0.00567098,0.00261840,0.00000881,-0.00225113,-0.0
 0027298,-0.00172816,0.00014917,-0.00491592,0.01211802,-0.00985713,0.01
 142981,-0.00108917,-0.00079256,0.00009014,0.00104657,-0.00183287,0.000
 47447,0.02584163,-0.07501115,0.00897177,0.01663908,-0.01176615,0.00366
 109,-0.02739827,0.00666419,-0.00789026,0.08564529,0.78493608,-0.001419
 33,0.00010261,0.00039709,0.00051541,0.00075365,0.00059382,0.00539903,0
 .00135832,0.00360398,0.00180466,-0.00284662,-0.00186682,-0.00008718,-0
 .00009072,0.00000312,-0.00002914,-0.00008316,-0.00002062,0.01054435,0.
 00091238,-0.00993914,-0.00018388,0.00040384,-0.00001659,0.00007652,-0.
 00006181,-0.00012913,-0.00151272,0.00017371,0.00008449,0.00002784,-0.0
 0000666,-0.00020009,0.00002716,-0.00074646,-0.00699133,-0.00002856,0.0
 0164086,-0.00139610,-0.00035487,-0.00050974,0.00090091,-0.00043357,-0.
 00030027,-0.00230575,-0.03117935,0.01624412,-0.01324291,0.00043425,0.0
 0334421,-0.00523879,0.00041397,-0.00152624,0.00119065,-0.00087817,0.00
 583479,-0.08628916,0.02317835,-0.01067838,0.00669243,-0.00141432,-0.00
 113680,-0.00198825,0.07618721,0.13546842,0.31938239,-0.00020609,-0.001
 16861,0.00039847,-0.00028329,-0.00227369,0.00077877,-0.01014413,-0.005
 60993,0.00838330,0.00249324,-0.00213520,0.00221140,0.00017146,-0.00039
 112,0.00013402,-0.00022797,-0.00028277,0.00016553,0.00315579,0.0045966
 0,-0.00886188,0.00029209,0.00020516,-0.00007911,0.00022593,-0.00002378
 ,-0.00012471,0.00003333,0.00035631,0.00025550,-0.00009872,-0.00016599,
 0.00010706,-0.00047291,-0.00073809,0.00011113,-0.00286625,-0.00043604,
 -0.00105133,0.00059233,0.00012769,-0.00029596,-0.00043974,0.00031846,0
 .00029225,-0.00281066,0.00147938,0.00320386,0.00031351,0.00060198,-0.0
 0180565,-0.00003202,0.00091828,-0.00084662,-0.00882536,0.03985036,0.00
 362324,-0.00503826,0.00585524,-0.00138737,0.00414165,0.00119906,0.0013
 2251,-0.11871503,0.04632718,0.00294212,0.11418475,0.00109991,0.0008782
 8,-0.00063667,-0.00030304,0.00006449,-0.00063660,0.00228794,-0.0011791
 8,-0.00778418,-0.00423016,0.00146039,0.00077117,0.00002366,0.00016924,
 -0.00010801,0.00010582,0.00006594,-0.00020072,-0.00804710,-0.01068223,
 0.00696385,0.00080694,-0.00092479,0.00039051,-0.00035606,0.00014438,0.
 00027450,0.00207175,-0.00038785,-0.00035807,-0.00011670,0.00012170,0.0
 0014883,0.00201410,0.00131093,0.00241556,-0.00191342,-0.00213088,-0.00
 090820,-0.00006747,0.00069796,0.00013711,0.00076779,-0.00079674,0.0024
 4194,0.00268459,0.00065709,-0.00512315,0.00015811,-0.00006553,0.001774
 39,-0.00027750,0.00052319,-0.00013078,0.01893690,-0.03929620,-0.009063
 36,0.00506975,-0.00190298,0.00242135,0.00231358,0.00125002,0.00044287,
 0.06056818,-0.46351533,-0.08059514,-0.03681437,0.59462397,0.00143069,0
 .00164814,-0.00048549,0.00020078,0.00098851,-0.00034285,0.01247290,0.0
 0208924,-0.01100817,-0.00112349,0.00409879,-0.00139382,-0.00008297,0.0
 0043541,-0.00010088,0.00010594,0.00014339,-0.00004944,-0.00664330,-0.0
 0449441,0.00296172,-0.00074821,-0.00017725,-0.00102053,-0.00001749,-0.
 00002053,0.00009683,0.00111907,0.00003822,-0.00012467,0.00010539,0.000
 03877,0.00022536,0.00003644,0.00054288,0.00251740,-0.00114779,-0.00172
 437,-0.00316336,0.00004454,0.00166591,-0.00007656,0.00057552,0.0012675
 1,0.00166381,0.00507155,-0.00263296,-0.00179972,-0.00009823,-0.0006990
 4,0.00156688,-0.00037894,0.00045491,0.00025867,-0.00392531,-0.00385498
 ,0.02148270,-0.00223807,0.00168027,-0.00042178,0.00022193,0.00097752,0
 .00006853,0.00909796,-0.07492581,-0.09415946,0.00102481,0.11407703,0.0
 6619336,0.00246742,0.00071752,-0.00090067,-0.00120206,-0.00280018,-0.0
 0041965,0.00173658,-0.00260612,-0.01506398,-0.00414068,0.00438611,0.00
 453758,0.00008736,0.00019180,0.00011189,-0.00012696,0.00002854,0.00020
 874,-0.00660860,-0.00319395,0.00716303,0.00000830,-0.00107303,-0.00033
 230,-0.00006597,0.00014203,0.00038965,0.00346279,0.00014924,0.00040934
 ,-0.00028752,-0.00003364,0.00093638,0.00287306,0.00249401,0.00596073,-
 0.00458957,-0.00155597,-0.00196592,0.00096699,0.00025936,-0.00059906,0
 .00047769,0.00014978,0.00123845,-0.00333216,-0.00308201,0.00465158,0.0
 0089619,0.00113402,-0.00202801,0.00011855,0.00147996,-0.00059795,-0.04
 754563,-0.02458890,-0.01957769,0.00146263,-0.00101306,0.00082808,-0.00
 949607,0.00348351,-0.00374273,-0.33650053,-0.16672920,-0.08402977,0.02
 455637,-0.04678320,-0.01510373,0.37478184,0.00084468,0.00126993,-0.001
 13914,0.00046271,0.00116842,-0.00084561,0.00193580,-0.00399935,-0.0055
 2476,-0.00213426,0.00228909,0.00130510,0.00009714,0.00012802,-0.000228
 40,0.00003508,0.00004579,-0.00011292,-0.00710404,-0.00574326,0.0060282
 0,-0.00001816,0.00001326,0.00044918,-0.00039921,0.00012926,0.00045115,
 0.00217130,-0.00167731,-0.00026807,0.00003838,0.00006952,-0.00004814,-
 0.00000904,0.00054303,0.00349942,-0.00124379,-0.00185074,-0.00180613,0
 .00023063,0.00073145,-0.00018238,0.00054624,-0.00004151,0.00196741,-0.
 00045046,-0.00121621,0.00166769,0.00084822,0.00097760,-0.00016440,-0.0
 0009467,0.00211073,-0.00146514,-0.00402366,0.00696201,-0.00437229,-0.0
 0153406,0.00222128,0.00107884,0.00328988,0.00135412,0.00150876,-0.1805
 3599,-0.24015338,-0.06765492,-0.05179608,-0.08108589,-0.04161715,0.238
 84338,0.31575419,-0.00156371,0.00202584,-0.00025021,0.00140730,0.00137
 863,0.00071925,-0.00262021,0.00022259,0.00168846,0.00490975,-0.0023433
 0,-0.00252196,0.00007524,-0.00009418,-0.00027123,0.00012618,-0.0000041
 8,-0.00011651,-0.00106198,-0.00247076,-0.00164122,-0.00258546,0.000593
 54,-0.00195349,0.00013166,-0.00007526,0.00029862,0.00093407,0.00005941
 ,-0.00036234,0.00011958,-0.00002522,0.00018443,-0.00061385,-0.00259386
 ,-0.00496774,0.00281994,0.00076278,0.00056164,-0.00029211,0.00008330,0
 .00003065,-0.00019922,-0.00020056,-0.00003744,0.00331244,-0.00118072,0
 .00181495,-0.00024772,-0.00091399,0.00091453,-0.00004569,-0.00051696,-
 0.00025440,-0.01765187,-0.00710982,0.01313683,-0.00281754,0.00146434,0
 .00019359,-0.00233867,0.00150083,0.00109673,-0.08922279,-0.07132189,-0
 .10906474,-0.01050136,-0.02671425,0.01711147,0.11792601,0.10747369,0.0
 8369013\\0.00000565,-0.00000464,0.00001186,-0.00000823,0.00000089,-0.0
 0000637,0.00000860,-0.00000536,-0.00000452,0.00000471,0.00000933,0.000
 00173,-0.00000195,0.00000139,-0.00000225,0.00000186,0.00000040,-0.0000
 0153,-0.00000425,-0.00000645,0.00000852,0.00000066,-0.00001139,-0.0000
 0707,-0.00000060,0.00000061,0.00000241,0.00000096,0.00000345,0.0000008
 3,-0.00000022,0.00000340,0.00000391,-0.00000862,0.00000869,-0.00000095
 ,0.00000030,0.00000224,0.00000373,-0.00000253,-0.00000207,-0.00000283,
 -0.00000028,0.00000008,-0.00000160,0.00000543,0.00000083,-0.00000357,-
 0.00000027,0.00000051,-0.00000138,-0.00000156,0.00000241,-0.00000229,0
 .00000425,-0.00000362,-0.00000092,-0.00000171,0.00000095,0.00000120,0.
 00000031,0.00000017,0.00000083,0.00000535,0.00001812,0.00001128,0.0000
 0395,-0.00001301,-0.00000376,-0.00001181,-0.00000695,-0.00000726\\\@


 THE MORE ACCURATE THE CALCULATIONS BECOME, THE MORE THE CONCEPTS
 TEND TO VANISH INTO THIN AIR.
     -- R.S. MULLIKEN, J.C.P. 43,S2(1965)
 Job cpu time:       0 days  0 hours 55 minutes 53.8 seconds.
 Elapsed time:       0 days  0 hours  2 minutes 33.3 seconds.
 File lengths (MBytes):  RWF=    201 Int=      0 D2E=      0 Chk=      8 Scr=      1
 Normal termination of Gaussian 16 at Wed May 18 10:47:58 2022.
