Title Card Required                                                     
Freq      RB3LYP                                                      6-311G(d,p)         
Number of atoms                            I               24
Info1-9                                    I   N=           9
          58          33        1002           0           0         100
           6          18        -502
Full Title                                 C   N=           2
Title Card Required     
Route                                      C   N=           4
#p opt freq b3lyp/6-311g(d,p) em=gd3bj          
Charge                                     I                0
Multiplicity                               I                1
Number of electrons                        I               90
Number of alpha electrons                  I               45
Number of beta electrons                   I               45
Number of basis functions                  I              288
Number of independent functions            I              288
Number of point charges in /Mol/           I                0
Number of translation vectors              I                0
Atomic numbers                             I   N=          24
           6           6           6           7           1           1
           1           6           1           1           1           7
           6           1           1           6           1           1
           6           1           1           6           8           8
Nuclear charges                            R   N=          24
  6.00000000E+00  6.00000000E+00  6.00000000E+00  7.00000000E+00  1.00000000E+00
  1.00000000E+00  1.00000000E+00  6.00000000E+00  1.00000000E+00  1.00000000E+00
  1.00000000E+00  7.00000000E+00  6.00000000E+00  1.00000000E+00  1.00000000E+00
  6.00000000E+00  1.00000000E+00  1.00000000E+00  6.00000000E+00  1.00000000E+00
  1.00000000E+00  6.00000000E+00  8.00000000E+00  8.00000000E+00
Current cartesian coordinates              R   N=          72
  4.30772011E+00 -1.88642003E+00  9.25698411E-01  2.29449636E+00 -3.41392333E+00
  4.84748621E-01  1.55613999E+00  2.50030127E-01 -1.39521765E+00  3.82213269E+00
  3.82271599E-01 -2.91441964E-01  6.02789232E+00 -2.21036265E+00  1.95820800E+00
  1.92179468E+00 -5.32610760E+00  1.06294516E+00  5.11167796E-01  1.78548782E+00
 -2.29712447E+00  5.10003087E+00  2.79600691E+00  1.36537019E-01  5.51277937E+00
  3.69987286E+00 -1.66638260E+00  3.82395916E+00  3.97651836E+00  1.24817820E+00
  6.85625011E+00  2.45155773E+00  1.14888679E+00  6.01205209E-01 -2.05420215E+00
 -9.85130865E-01 -2.05934563E+00 -2.78013783E+00 -1.42906920E+00 -2.04726444E+00
 -4.78393579E+00 -1.91348308E+00 -2.71691904E+00 -1.69606776E+00 -3.05117198E+00
 -3.73323042E+00 -2.26245244E+00  9.09043971E-01 -5.25862241E+00 -3.65841870E+00
  9.01489426E-01 -2.59969359E+00 -2.60768925E+00  2.60135717E+00 -4.84780173E+00
  4.28834151E-01  1.03018054E+00 -5.56006786E+00  7.67277596E-01  2.93713883E+00
 -6.39966595E+00  6.11772359E-01 -3.17192014E-01 -2.74876153E+00  2.33272603E+00
  3.41773284E-01 -2.74761638E+00  3.08884616E+00 -1.91596193E+00 -1.03369156E+00
  2.64935727E+00  1.95358573E+00
Number of symbols in /Mol/                 I                0
Force Field                                I                0
Atom Types                                 C   N=          24
                                                            
                                                            
                                                            
                                                            
                                                
Int Atom Types                             I   N=          24
           0           0           0           0           0           0
           0           0           0           0           0           0
           0           0           0           0           0           0
           0           0           0           0           0           0
MM charges                                 R   N=          24
  0.00000000E+00  0.00000000E+00  0.00000000E+00  0.00000000E+00  0.00000000E+00
  0.00000000E+00  0.00000000E+00  0.00000000E+00  0.00000000E+00  0.00000000E+00
  0.00000000E+00  0.00000000E+00  0.00000000E+00  0.00000000E+00  0.00000000E+00
  0.00000000E+00  0.00000000E+00  0.00000000E+00  0.00000000E+00  0.00000000E+00
  0.00000000E+00  0.00000000E+00  0.00000000E+00  0.00000000E+00
Integer atomic weights                     I   N=          24
          12          12          12          14           1           1
           1          12           1           1           1          14
          12           1           1          12           1           1
          12           1           1          12          16          16
Real atomic weights                        R   N=          24
  1.20000000E+01  1.20000000E+01  1.20000000E+01  1.40030740E+01  1.00782504E+00
  1.00782504E+00  1.00782504E+00  1.20000000E+01  1.00782504E+00  1.00782504E+00
  1.00782504E+00  1.40030740E+01  1.20000000E+01  1.00782504E+00  1.00782504E+00
  1.20000000E+01  1.00782504E+00  1.00782504E+00  1.20000000E+01  1.00782504E+00
  1.00782504E+00  1.20000000E+01  1.59949146E+01  1.59949146E+01
Atom fragment info                         I   N=          24
           0           0           0           0           0           0
           0           0           0           0           0           0
           0           0           0           0           0           0
           0           0           0           0           0           0
Atom residue num                           I   N=          24
           0           0           0           0           0           0
           0           0           0           0           0           0
           0           0           0           0           0           0
           0           0           0           0           0           0
Nuclear spins                              I   N=          24
           0           0           0           2           1           1
           1           0           1           1           1           2
           0           1           1           0           1           1
           0           1           1           0           0           0
Nuclear ZEff                               R   N=          24
 -3.60000000E+00 -3.60000000E+00 -3.60000000E+00 -4.55000000E+00 -1.00000000E+00
 -1.00000000E+00 -1.00000000E+00 -3.60000000E+00 -1.00000000E+00 -1.00000000E+00
 -1.00000000E+00 -4.55000000E+00 -3.60000000E+00 -1.00000000E+00 -1.00000000E+00
 -3.60000000E+00 -1.00000000E+00 -1.00000000E+00 -3.60000000E+00 -1.00000000E+00
 -1.00000000E+00 -3.60000000E+00 -5.60000000E+00 -5.60000000E+00
Nuclear ZNuc                               R   N=          24
  6.00000000E+00  6.00000000E+00  6.00000000E+00  7.00000000E+00  1.00000000E+00
  1.00000000E+00  1.00000000E+00  6.00000000E+00  1.00000000E+00  1.00000000E+00
  1.00000000E+00  7.00000000E+00  6.00000000E+00  1.00000000E+00  1.00000000E+00
  6.00000000E+00  1.00000000E+00  1.00000000E+00  6.00000000E+00  1.00000000E+00
  1.00000000E+00  6.00000000E+00  8.00000000E+00  8.00000000E+00
Nuclear QMom                               R   N=          24
  0.00000000E+00  0.00000000E+00  0.00000000E+00  2.04400000E+00  0.00000000E+00
  0.00000000E+00  0.00000000E+00  0.00000000E+00  0.00000000E+00  0.00000000E+00
  0.00000000E+00  2.04400000E+00  0.00000000E+00  0.00000000E+00  0.00000000E+00
  0.00000000E+00  0.00000000E+00  0.00000000E+00  0.00000000E+00  0.00000000E+00
  0.00000000E+00  0.00000000E+00  0.00000000E+00  0.00000000E+00
Nuclear GFac                               R   N=          24
  0.00000000E+00  0.00000000E+00  0.00000000E+00  4.03761000E-01  2.79284600E+00
  2.79284600E+00  2.79284600E+00  0.00000000E+00  2.79284600E+00  2.79284600E+00
  2.79284600E+00  4.03761000E-01  0.00000000E+00  2.79284600E+00  2.79284600E+00
  0.00000000E+00  2.79284600E+00  2.79284600E+00  0.00000000E+00  2.79284600E+00
  2.79284600E+00  0.00000000E+00  0.00000000E+00  0.00000000E+00
MicOpt                                     I   N=          24
          -1          -1          -1          -1          -1          -1
          -1          -1          -1          -1          -1          -1
          -1          -1          -1          -1          -1          -1
          -1          -1          -1          -1          -1          -1
Number of residues                         I                0
Number of secondary structures             I                0
Redundant internal dimensions              I   N=           4
         122          24          42          56
Redundant internal coordinate indices      I   N=         488
           1           2           0           0           1           4
           0           0           1           5           0           0
           2           6           0           0           2          12
           0           0           3           4           0           0
           3           7           0           0           3          12
           0           0           4           8           0           0
           8           9           0           0           8          10
           0           0           8          11           0           0
          12          13           0           0          13          14
           0           0          13          15           0           0
          13          16           0           0          16          17
           0           0          16          18           0           0
          16          19           0           0          19          20
           0           0          19          21           0           0
          19          22           0           0          22          23
           0           0          22          24           0           0
           2           1           4           0           2           1
           5           0           4           1           5           0
           1           2           6           0           1           2
          12           0           6           2          12           0
           4           3           7           0           4           3
          12           0           7           3          12           0
           1           4           3           0           1           4
           8           0           3           4           8           0
           4           8           9           0           4           8
          10           0           4           8          11           0
           9           8          10           0           9           8
          11           0          10           8          11           0
           2          12           3           0           2          12
          13           0           3          12          13           0
          12          13          14           0          12          13
          15           0          12          13          16           0
          14          13          15           0          14          13
          16           0          15          13          16           0
          13          16          17           0          13          16
          18           0          13          16          19           0
          17          16          18           0          17          16
          19           0          18          16          19           0
          16          19          20           0          16          19
          21           0          16          19          22           0
          20          19          21           0          20          19
          22           0          21          19          22           0
          19          22          23           0          19          22
          24           0          23          22          24           0
           4           1           2           6           4           1
           2          12           5           1           2           6
           5           1           2          12           2           1
           4           3           2           1           4           8
           5           1           4           3           5           1
           4           8           1           2          12           3
           1           2          12          13           6           2
          12           3           6           2          12          13
           7           3           4           1           7           3
           4           8          12           3           4           1
          12           3           4           8           4           3
          12           2           4           3          12          13
           7           3          12           2           7           3
          12          13           1           4           8           9
           1           4           8          10           1           4
           8          11           3           4           8           9
           3           4           8          10           3           4
           8          11           2          12          13          14
           2          12          13          15           2          12
          13          16           3          12          13          14
           3          12          13          15           3          12
          13          16          12          13          16          17
          12          13          16          18          12          13
          16          19          14          13          16          17
          14          13          16          18          14          13
          16          19          15          13          16          17
          15          13          16          18          15          13
          16          19          13          16          19          20
          13          16          19          21          13          16
          19          22          17          16          19          20
          17          16          19          21          17          16
          19          22          18          16          19          20
          18          16          19          21          18          16
          19          22          16          19          22          23
          16          19          22          24          20          19
          22          23          20          19          22          24
          21          19          22          23          21          19
          22          24
Redundant internal coordinates             R   N=         122
  2.56530172E+00  2.61995946E+00  2.03224194E+00  2.03215808E+00  2.62233147E+00
  2.52399119E+00  2.06471139E+00  2.52775750E+00  2.76447245E+00  2.05860489E+00
  2.06342250E+00  2.05616228E+00  2.79331248E+00  2.06155500E+00  2.05884146E+00
  2.92175660E+00  2.06775231E+00  2.06591824E+00  2.91547026E+00  2.06357867E+00
  2.06328906E+00  2.91627821E+00  2.38098451E+00  2.37479677E+00  1.86534251E+00
  2.28722326E+00  2.13050502E+00  2.28540156E+00  1.86957552E+00  2.12817107E+00
  2.22237249E+00  1.89228278E+00  2.16225732E+00  1.90094904E+00  2.21238240E+00
  2.12757594E+00  1.91820034E+00  1.87240845E+00  1.90157709E+00  1.92263159E+00
  1.91080925E+00  1.93778490E+00  1.89616775E+00  2.17652279E+00  2.17845032E+00
  1.85914047E+00  1.86772594E+00  1.95243934E+00  1.90554682E+00  1.94294000E+00
  1.93286971E+00  1.87558529E+00  1.88764374E+00  1.99964802E+00  1.87019074E+00
  1.91912863E+00  1.90708357E+00  1.89836945E+00  1.92010608E+00  1.89407554E+00
  1.90637054E+00  1.93853180E+00  1.90638495E+00  2.01695869E+00  2.03380489E+00
  2.21541604E+00  3.12734492E+00 -4.90088376E-03  2.15177340E-03 -3.13009403E+00
  2.10969323E-02  2.85580170E+00 -3.13509042E+00 -3.00385645E-01 -1.28796139E-02
 -2.89532335E+00  3.13703233E+00  2.54588594E-01  2.99478131E+00  1.42277914E-01
 -2.93738200E-02 -2.88187722E+00  2.61976946E-02  2.90828654E+00 -3.00293004E+00
 -1.20841193E-01  2.38186430E+00 -1.81097243E+00  2.88209025E-01 -1.10305448E+00
  9.87294092E-01  3.08647555E+00 -8.19517819E-01 -2.85609248E+00  1.30717951E+00
  2.62232168E+00  5.85747023E-01 -1.53416629E+00 -2.61851740E+00 -6.04842641E-01
  1.52664696E+00 -5.40703171E-01  1.47297159E+00 -2.67872412E+00  1.58277505E+00
 -2.68673550E+00 -5.55245897E-01 -2.88328976E+00  1.31248794E+00 -7.72319203E-01
  1.28564536E+00 -8.01762246E-01 -2.88656939E+00 -7.62410696E-01 -2.84981830E+00
  1.34855986E+00  1.70739938E+00 -1.25100077E+00 -2.48978887E+00  8.34996275E-01
 -3.85984839E-01  2.93880031E+00
ZRed-IntVec                                I   N=         122
           0           0           0           0           0           0
           0           0           0           0           0           0
           0           0           0           0           0           0
           0           0           0           0           0           0
           0           0           0           0           0           0
           0           0           0           0           0           0
           0           0           0           0           0           0
           0           0           0           0           0           0
           0           0           0           0           0           0
           0           0           0           0           0           0
           0           0           0           0           0           0
           0           0           0           0           0           0
           0           0           0           0           0           0
           0           0           0           0           0           0
           0           0           0           0           0           0
           0           0           0           0           0           0
           0           0           0           0           0           0
           0           0           0           0           0           0
           0           0           0           0           0           0
           0           0           0           0           0           0
           0           0
ZRed-FPVec                                 R   N=         122
  0.00000000E+00  0.00000000E+00  0.00000000E+00  0.00000000E+00  0.00000000E+00
  0.00000000E+00  0.00000000E+00  0.00000000E+00  0.00000000E+00  0.00000000E+00
  0.00000000E+00  0.00000000E+00  0.00000000E+00  0.00000000E+00  0.00000000E+00
  0.00000000E+00  0.00000000E+00  0.00000000E+00  0.00000000E+00  0.00000000E+00
  0.00000000E+00  0.00000000E+00  0.00000000E+00  0.00000000E+00  0.00000000E+00
  0.00000000E+00  0.00000000E+00  0.00000000E+00  0.00000000E+00  0.00000000E+00
  0.00000000E+00  0.00000000E+00  0.00000000E+00  0.00000000E+00  0.00000000E+00
  0.00000000E+00  0.00000000E+00  0.00000000E+00  0.00000000E+00  0.00000000E+00
  0.00000000E+00  0.00000000E+00  0.00000000E+00  0.00000000E+00  0.00000000E+00
  0.00000000E+00  0.00000000E+00  0.00000000E+00  0.00000000E+00  0.00000000E+00
  0.00000000E+00  0.00000000E+00  0.00000000E+00  0.00000000E+00  0.00000000E+00
  0.00000000E+00  0.00000000E+00  0.00000000E+00  0.00000000E+00  0.00000000E+00
  0.00000000E+00  0.00000000E+00  0.00000000E+00  0.00000000E+00  0.00000000E+00
  0.00000000E+00  0.00000000E+00  0.00000000E+00  0.00000000E+00  0.00000000E+00
  0.00000000E+00  0.00000000E+00  0.00000000E+00  0.00000000E+00  0.00000000E+00
  0.00000000E+00  0.00000000E+00  0.00000000E+00  0.00000000E+00  0.00000000E+00
  0.00000000E+00  0.00000000E+00  0.00000000E+00  0.00000000E+00  0.00000000E+00
  0.00000000E+00  0.00000000E+00  0.00000000E+00  0.00000000E+00  0.00000000E+00
  0.00000000E+00  0.00000000E+00  0.00000000E+00  0.00000000E+00  0.00000000E+00
  0.00000000E+00  0.00000000E+00  0.00000000E+00  0.00000000E+00  0.00000000E+00
  0.00000000E+00  0.00000000E+00  0.00000000E+00  0.00000000E+00  0.00000000E+00
  0.00000000E+00  0.00000000E+00  0.00000000E+00  0.00000000E+00  0.00000000E+00
  0.00000000E+00  0.00000000E+00  0.00000000E+00  0.00000000E+00  0.00000000E+00
  0.00000000E+00  0.00000000E+00  0.00000000E+00  0.00000000E+00  0.00000000E+00
  0.00000000E+00  0.00000000E+00
ZRed-Constraint1                           R   N=         122
  2.56530172E+00  2.61995946E+00  2.03224194E+00  2.03215808E+00  2.62233147E+00
  2.52399119E+00  2.06471139E+00  2.52775750E+00  2.76447245E+00  2.05860489E+00
  2.06342250E+00  2.05616228E+00  2.79331248E+00  2.06155500E+00  2.05884146E+00
  2.92175660E+00  2.06775231E+00  2.06591824E+00  2.91547026E+00  2.06357867E+00
  2.06328906E+00  2.91627821E+00  2.38098451E+00  2.37479677E+00  1.86534251E+00
  2.28722326E+00  2.13050502E+00  2.28540156E+00  1.86957552E+00  2.12817107E+00
  2.22237249E+00  1.89228278E+00  2.16225732E+00  1.90094904E+00  2.21238240E+00
  2.12757594E+00  1.91820034E+00  1.87240845E+00  1.90157709E+00  1.92263159E+00
  1.91080925E+00  1.93778490E+00  1.89616775E+00  2.17652279E+00  2.17845032E+00
  1.85914047E+00  1.86772594E+00  1.95243934E+00  1.90554682E+00  1.94294000E+00
  1.93286971E+00  1.87558529E+00  1.88764374E+00  1.99964802E+00  1.87019074E+00
  1.91912863E+00  1.90708357E+00  1.89836945E+00  1.92010608E+00  1.89407554E+00
  1.90637054E+00  1.93853180E+00  1.90638495E+00  2.01695869E+00  2.03380489E+00
  2.21541604E+00  3.12734492E+00 -4.90088376E-03  2.15177340E-03 -3.13009403E+00
  2.10969323E-02  2.85580170E+00 -3.13509042E+00 -3.00385645E-01 -1.28796139E-02
 -2.89532335E+00  3.13703233E+00  2.54588594E-01  2.99478131E+00  1.42277914E-01
 -2.93738200E-02 -2.88187722E+00  2.61976946E-02  2.90828654E+00 -3.00293004E+00
 -1.20841193E-01  2.38186430E+00 -1.81097243E+00  2.88209025E-01 -1.10305448E+00
  9.87294092E-01  3.08647555E+00 -8.19517819E-01 -2.85609248E+00  1.30717951E+00
  2.62232168E+00  5.85747023E-01 -1.53416629E+00 -2.61851740E+00 -6.04842641E-01
  1.52664696E+00 -5.40703171E-01  1.47297159E+00 -2.67872412E+00  1.58277505E+00
 -2.68673550E+00 -5.55245897E-01 -2.88328976E+00  1.31248794E+00 -7.72319203E-01
  1.28564536E+00 -8.01762246E-01 -2.88656939E+00 -7.62410696E-01 -2.84981830E+00
  1.34855986E+00  1.70739938E+00 -1.25100077E+00 -2.48978887E+00  8.34996275E-01
 -3.85984839E-01  2.93880031E+00
ZRed-Constraint2                           R   N=         122
  2.64892360E+00  2.63011674E+00  2.05841662E+00  2.05001086E+00  2.71151399E+00
  2.63012837E+00  2.05834967E+00  2.64910943E+00  2.77789739E+00  2.02200696E+00
  2.02200697E+00  2.02200696E+00  2.77789740E+00  2.02200695E+00  2.02200696E+00
  2.91017824E+00  2.02200696E+00  2.02200695E+00  2.91017823E+00  2.02200695E+00
  2.02200695E+00  2.91017824E+00  2.45910059E+00  2.45910062E+00  1.89224537E+00
  2.27063170E+00  2.12030823E+00  2.20680745E+00  1.87077043E+00  2.20560743E+00
  2.12012480E+00  1.89217573E+00  2.27088479E+00  1.89884208E+00  2.19207400E+00
  2.19226917E+00  1.91063292E+00  1.91063292E+00  1.91063343E+00  1.91063376E+00
  1.91063319E+00  1.91063319E+00  1.87074434E+00  2.20561371E+00  2.20682725E+00
  1.91063293E+00  1.91063343E+00  1.91063292E+00  1.91063320E+00  1.91063376E+00
  1.91063318E+00  1.91063291E+00  1.91063343E+00  1.91063292E+00  1.91063319E+00
  1.91063376E+00  1.91063320E+00  1.91063292E+00  1.91063342E+00  1.91063292E+00
  1.91063320E+00  1.91063377E+00  1.91063319E+00  2.09241463E+00  2.09241461E+00
  2.09835607E+00  3.14157081E+00  6.80333888E-06  8.89788825E-05 -3.14147503E+00
  6.77597385E-05  3.14132399E+00  3.14156101E+00 -3.68071976E-04 -7.76471657E-05
 -3.14156403E+00  3.14154363E+00  5.72378372E-05  3.14145980E+00  2.03617987E-04
 -1.17322457E-04 -3.14137350E+00  1.19583058E-04 -3.14157943E+00 -3.14145575E+00
  3.05431315E-05  2.62463882E+00 -1.56415114E+00  5.30243842E-01 -5.17345567E-01
  1.57704979E+00 -2.61174054E+00 -1.55175315E+00  2.63703717E+00  5.42642211E-01
  1.58996570E+00 -5.04429282E-01 -2.59882424E+00 -1.77904527E+00  3.15349695E-01
  2.40974468E+00  3.15349584E-01  2.40974455E+00 -1.77904577E+00  2.40974493E+00
 -1.77904542E+00  3.15349567E-01  2.27884473E+00  1.84449753E-01 -1.90994521E+00
  1.84449888E-01 -1.90994509E+00  2.27884525E+00 -1.90994546E+00  2.27884487E+00
  1.84449908E-01  1.58528394E+00 -1.55630872E+00 -2.60350652E+00  5.38086134E-01
 -5.09111168E-01  2.63248148E+00
SymInf integers                            I   N=          26
           1           1           1           1           1           0
           0           0           0           0           0           0
           0           0           0           0           0           0
           0           0           0           0           0           0
           0           0
RotTr to input orientation                 R   N=          12
 -9.46214296E-01 -1.58370254E-01  2.82130056E-01 -3.23382285E-01  4.90210956E-01
 -8.09393054E-01 -1.01194605E-02 -8.57095141E-01 -5.15058749E-01  1.62515629E+00
 -1.74803396E-01 -1.33324666E+00
Number of contracted shells                I              108
Number of primitive shells                 I              216
Pure/Cartesian d shells                    I                0
Pure/Cartesian f shells                    I                0
Highest angular momentum                   I                2
Largest degree of contraction              I                6
Shell types                                I   N=         108
           0          -1          -1          -1          -2           0
          -1          -1          -1          -2           0          -1
          -1          -1          -2           0          -1          -1
          -1          -2           0           0           0           1
           0           0           0           1           0           0
           0           1           0          -1          -1          -1
          -2           0           0           0           1           0
           0           0           1           0           0           0
           1           0          -1          -1          -1          -2
           0          -1          -1          -1          -2           0
           0           0           1           0           0           0
           1           0          -1          -1          -1          -2
           0           0           0           1           0           0
           0           1           0          -1          -1          -1
          -2           0           0           0           1           0
           0           0           1           0          -1          -1
          -1          -2           0          -1          -1          -1
          -2           0          -1          -1          -1          -2
Number of primitives per shell             I   N=         108
           6           3           1           1           1           6
           3           1           1           1           6           3
           1           1           1           6           3           1
           1           1           3           1           1           1
           3           1           1           1           3           1
           1           1           6           3           1           1
           1           3           1           1           1           3
           1           1           1           3           1           1
           1           6           3           1           1           1
           6           3           1           1           1           3
           1           1           1           3           1           1
           1           6           3           1           1           1
           3           1           1           1           3           1
           1           1           6           3           1           1
           1           3           1           1           1           3
           1           1           1           6           3           1
           1           1           6           3           1           1
           1           6           3           1           1           1
Shell to atom map                          I   N=         108
           1           1           1           1           1           2
           2           2           2           2           3           3
           3           3           3           4           4           4
           4           4           5           5           5           5
           6           6           6           6           7           7
           7           7           8           8           8           8
           8           9           9           9           9          10
          10          10          10          11          11          11
          11          12          12          12          12          12
          13          13          13          13          13          14
          14          14          14          15          15          15
          15          16          16          16          16          16
          17          17          17          17          18          18
          18          18          19          19          19          19
          19          20          20          20          20          21
          21          21          21          22          22          22
          22          22          23          23          23          23
          23          24          24          24          24          24
Primitive exponents                        R   N=         216
  4.56324000E+03  6.82024000E+02  1.54973000E+02  4.44553000E+01  1.30290000E+01
  1.82773000E+00  2.09642000E+01  4.80331000E+00  1.45933000E+00  4.83456000E-01
  1.45585000E-01  6.26000000E-01  4.56324000E+03  6.82024000E+02  1.54973000E+02
  4.44553000E+01  1.30290000E+01  1.82773000E+00  2.09642000E+01  4.80331000E+00