 Entering Gaussian System, Link 0=g16
 Initial command:
 /data0/home/software/g16/l1.exe "/data0/home/software/g16/scratch/Gau-916924.inp" -scrdir="/data0/home/software/g16/scratch/"
 Default is to use a total of  22 processors:
                               22 via shared-memory
                                1 via Linda
 Entering Link 1 = /data0/home/software/g16/l1.exe PID=    916925.
  
 Copyright (c) 1988,1990,1992,1993,1995,1998,2003,2009,2016,
            Gaussian, Inc.  All Rights Reserved.
  
 This is part of the Gaussian(R) 16 program.  It is based on
 the Gaussian(R) 09 system (copyright 2009, Gaussian, Inc.),
 the Gaussian(R) 03 system (copyright 2003, Gaussian, Inc.),
 the Gaussian(R) 98 system (copyright 1998, Gaussian, Inc.),
 the Gaussian(R) 94 system (copyright 1995, Gaussian, Inc.),
 the Gaussian 92(TM) system (copyright 1992, Gaussian, Inc.),
 the Gaussian 90(TM) system (copyright 1990, Gaussian, Inc.),
 the Gaussian 88(TM) system (copyright 1988, Gaussian, Inc.),
 the Gaussian 86(TM) system (copyright 1986, Carnegie Mellon
 University), and the Gaussian 82(TM) system (copyright 1983,
 Carnegie Mellon University). Gaussian is a federally registered
 trademark of Gaussian, Inc.
  
 This software contains proprietary and confidential information,
 including trade secrets, belonging to Gaussian, Inc.
  
 This software is provided under written license and may be
 used, copied, transmitted, or stored only in accord with that
 written license.
  
 The following legend is applicable only to US Government
 contracts under FAR:
  
                    RESTRICTED RIGHTS LEGEND
  
 Use, reproduction and disclosure by the US Government is
 subject to restrictions as set forth in subparagraphs (a)
 and (c) of the Commercial Computer Software - Restricted
 Rights clause in FAR 52.227-19.
  
 Gaussian, Inc.
 340 Quinnipiac St., Bldg. 40, Wallingford CT 06492
  
  
 ---------------------------------------------------------------
 Warning -- This program may not be used in any manner that
 competes with the business of Gaussian, Inc. or will provide
 assistance to any competitor of Gaussian, Inc.  The licensee
 of this program is prohibited from giving any competitor of
 Gaussian, Inc. access to this program.  By using this program,
 the user acknowledges that Gaussian, Inc. is engaged in the
 business of creating and licensing software in the field of
 computational chemistry and represents and warrants to the
 licensee that it is not a competitor of Gaussian, Inc. and that
 it will not use this program in any manner prohibited above.
 ---------------------------------------------------------------
  

 Cite this work as:
 Gaussian 16, Revision A.03,
 M. J. Frisch, G. W. Trucks, H. B. Schlegel, G. E. Scuseria, 
 M. A. Robb, J. R. Cheeseman, G. Scalmani, V. Barone, 
 G. A. Petersson, H. Nakatsuji, X. Li, M. Caricato, A. V. Marenich, 
 J. Bloino, B. G. Janesko, R. Gomperts, B. Mennucci, H. P. Hratchian, 
 J. V. Ortiz, A. F. Izmaylov, J. L. Sonnenberg, D. Williams-Young, 
 F. Ding, F. Lipparini, F. Egidi, J. Goings, B. Peng, A. Petrone, 
 T. Henderson, D. Ranasinghe, V. G. Zakrzewski, J. Gao, N. Rega, 
 G. Zheng, W. Liang, M. Hada, M. Ehara, K. Toyota, R. Fukuda, 
 J. Hasegawa, M. Ishida, T. Nakajima, Y. Honda, O. Kitao, H. Nakai, 
 T. Vreven, K. Throssell, J. A. Montgomery, Jr., J. E. Peralta, 
 F. Ogliaro, M. J. Bearpark, J. J. Heyd, E. N. Brothers, K. N. Kudin, 
 V. N. Staroverov, T. A. Keith, R. Kobayashi, J. Normand, 
 K. Raghavachari, A. P. Rendell, J. C. Burant, S. S. Iyengar, 
 J. Tomasi, M. Cossi, J. M. Millam, M. Klene, C. Adamo, R. Cammi, 
 J. W. Ochterski, R. L. Martin, K. Morokuma, O. Farkas, 
 J. B. Foresman, and D. J. Fox, Gaussian, Inc., Wallingford CT, 2016.
 
 ******************************************
 Gaussian 16:  ES64L-G16RevA.03 25-Dec-2016
                 3-Jan-2023 
 ******************************************
 %nproc=24
 Will use up to   24 processors via shared memory.
 %mem=50GB
 ---------------------------------------------------
 #p M062X/6-311+G(2d,p) nosymm em=GD3 counterpoise=2
 ---------------------------------------------------
 1/38=1,62=2,172=1/1;
 2/12=2,15=1,17=6,18=5,40=1/2;
 1/38=1,53=2,62=2,63=1/22;
 3/5=4,6=6,7=112,11=2,25=1,30=1,74=-55,124=31/1,2,3;
 4//1;
 5/5=2,38=5/2;
 6/7=2,8=2,9=2,10=2,28=1/1;
 1/53=2,62=2,63=1/22;
 3/5=7,6=11,7=112,11=2,25=1,30=1,74=-55,82=7,124=31/1,2,3;
 4//1;
 5/5=2,38=5/2;
 6/7=2,8=2,9=2,10=2,28=1/1;
 1/53=2,62=2,63=1/22(-4);
 99/5=1,9=1/99;
 Leave Link    1 at Tue Jan  3 20:51:53 2023, MaxMem=  6710886400 cpu:               0.7 elap:               0.0
 (Enter /data0/home/software/g16/l101.exe)
 -------------------
 Title Card Required
 -------------------
 Symbolic Z-matrix:
 Charge =  0 Multiplicity = 1 in supermolecule
 Charge =  0 Multiplicity = 1 in fragment      1.
 Charge =  0 Multiplicity = 1 in fragment      2.
 C                     15.96453   18.2626   4.98154    
 H                     16.65055   17.40991   4.87832    
 H                     16.5363   19.19627   4.8951     
 H                     15.55063   18.21851   6.02537    
 C                     15.42943   18.21449   2.59492    
 H                     16.09329   17.34957   2.43171    
 H                     14.63091   18.17161   1.83161    
 H                     16.01181   19.13297   2.41841    
 C                     14.09814   16.91404   4.1801     
 H                     13.56911   16.90122   5.16701    
 H                     13.28993   16.77875   3.43448    
 H                     14.76596   16.04473   4.14912    
 C                     13.96135   19.4209   4.17612    
 H                     14.57587   20.32812   4.00859    
 H                     13.65989   19.45254   5.26214    
 C                     12.70888   19.44445   3.28688    
 H                     12.61998   18.52882   2.66646    
 H                     12.76618   20.28745   2.57354    
 C                     11.44101   19.5627   4.13436    
 H                     10.53422   19.53025   3.5101     
 H                     11.40544   20.50283   4.70502    
 N                     14.84554   18.19775   3.97944    
 C                     11.41215   18.35093   5.1084     
 O                     11.24832   17.24043   4.60737    
 O                     11.65643   18.6241   6.30411    
 O                     13.99621   18.00741   7.25228    
 H                     13.86076   17.79807   8.16494    
 H                     13.05721   18.20863   6.91257    
 
 ITRead=  0  0  0  0  0  0  0  0  0  0  0  0  0  0  0  0  0  0  0  0
 ITRead=  0  0  0  0  0  0  0  0
 MicOpt= -1 -1 -1 -1 -1 -1 -1 -1 -1 -1 -1 -1 -1 -1 -1 -1 -1 -1 -1 -1
 MicOpt= -1 -1 -1 -1 -1 -1 -1 -1
 NAtoms=     28 NQM=       28 NQMF=       0 NMMI=      0 NMMIF=      0
                NMic=       0 NMicF=      0.
                    Isotopes and Nuclear Properties:
 (Nuclear quadrupole moments (NQMom) in fm**2, nuclear magnetic moments (NMagM)
  in nuclear magnetons)

  Atom         1           2           3           4           5           6           7           8           9          10
 IAtWgt=          12           1           1           1          12           1           1           1          12           1
 AtmWgt=  12.0000000   1.0078250   1.0078250   1.0078250  12.0000000   1.0078250   1.0078250   1.0078250  12.0000000   1.0078250
 NucSpn=           0           1           1           1           0           1           1           1           0           1
 AtZEff=  -0.0000000  -0.0000000  -0.0000000  -0.0000000  -0.0000000  -0.0000000  -0.0000000  -0.0000000  -0.0000000  -0.0000000
 NQMom=    0.0000000   0.0000000   0.0000000   0.0000000   0.0000000   0.0000000   0.0000000   0.0000000   0.0000000   0.0000000
 NMagM=    0.0000000   2.7928460   2.7928460   2.7928460   0.0000000   2.7928460   2.7928460   2.7928460   0.0000000   2.7928460
 AtZNuc=   6.0000000   1.0000000   1.0000000   1.0000000   6.0000000   1.0000000   1.0000000   1.0000000   6.0000000   1.0000000

  Atom        11          12          13          14          15          16          17          18          19          20
 IAtWgt=           1           1          12           1           1          12           1           1          12           1
 AtmWgt=   1.0078250   1.0078250  12.0000000   1.0078250   1.0078250  12.0000000   1.0078250   1.0078250  12.0000000   1.0078250
 NucSpn=           1           1           0           1           1           0           1           1           0           1
 AtZEff=  -0.0000000  -0.0000000  -0.0000000  -0.0000000  -0.0000000  -0.0000000  -0.0000000  -0.0000000  -0.0000000  -0.0000000
 NQMom=    0.0000000   0.0000000   0.0000000   0.0000000   0.0000000   0.0000000   0.0000000   0.0000000   0.0000000   0.0000000
 NMagM=    2.7928460   2.7928460   0.0000000   2.7928460   2.7928460   0.0000000   2.7928460   2.7928460   0.0000000   2.7928460
 AtZNuc=   1.0000000   1.0000000   6.0000000   1.0000000   1.0000000   6.0000000   1.0000000   1.0000000   6.0000000   1.0000000

  Atom        21          22          23          24          25          26          27          28
 IAtWgt=           1          14          12          16          16          16           1           1
 AtmWgt=   1.0078250  14.0030740  12.0000000  15.9949146  15.9949146  15.9949146   1.0078250   1.0078250
 NucSpn=           1           2           0           0           0           0           1           1
 AtZEff=  -0.0000000  -0.0000000  -0.0000000  -0.0000000  -0.0000000  -0.0000000  -0.0000000  -0.0000000
 NQMom=    0.0000000   2.0440000   0.0000000   0.0000000   0.0000000   0.0000000   0.0000000   0.0000000
 NMagM=    2.7928460   0.4037610   0.0000000   0.0000000   0.0000000   0.0000000   2.7928460   2.7928460
 AtZNuc=   1.0000000   7.0000000   6.0000000   8.0000000   8.0000000   8.0000000   1.0000000   1.0000000
 Leave Link  101 at Tue Jan  3 20:51:53 2023, MaxMem=  6710886400 cpu:               2.2 elap:               0.1
 (Enter /data0/home/software/g16/l202.exe)
                          Input orientation:                          
 ---------------------------------------------------------------------
 Center     Atomic      Atomic             Coordinates (Angstroms)
 Number     Number       Type             X           Y           Z
 ---------------------------------------------------------------------
      1          6           0       15.964533   18.262602    4.981543
      2          1           0       16.650548   17.409911    4.878323
      3          1           0       16.536302   19.196266    4.895099
      4          1           0       15.550626   18.218506    6.025366
      5          6           0       15.429428   18.214494    2.594916
      6          1           0       16.093294   17.349570    2.431714
      7          1           0       14.630908   18.171607    1.831613
      8          1           0       16.011807   19.132966    2.418410
      9          6           0       14.098144   16.914040    4.180100
     10          1           0       13.569108   16.901218    5.167008
     11          1           0       13.289930   16.778748    3.434477
     12          1           0       14.765958   16.044734    4.149116
     13          6           0       13.961349   19.420902    4.176125
     14          1           0       14.575867   20.328117    4.008585
     15          1           0       13.659886   19.452544    5.262140
     16          6           0       12.708883   19.444449    3.286875
     17          1           0       12.619979   18.528815    2.666457
     18          1           0       12.766176   20.287445    2.573535
     19          6           0       11.441013   19.562698    4.134360
     20          1           0       10.534219   19.530249    3.510100
     21          1           0       11.405439   20.502829    4.705024
     22          7           0       14.845544   18.197749    3.979437
     23          6           0       11.412152   18.350931    5.108400
     24          8           0       11.248322   17.240429    4.607371
     25          8           0       11.656432   18.624099    6.304112
     26          8           0       13.996212   18.007412    7.252284
     27          1           0       13.860755   17.798073    8.164945
     28          1           0       13.057209   18.208625    6.912567
 ---------------------------------------------------------------------
                    Distance matrix (angstroms):
                    1          2          3          4          5
     1  C    0.000000
     2  H    1.099251   0.000000
     3  H    1.098235   1.790083   0.000000
     4  H    1.123757   1.783077   1.790272   0.000000
     5  C    2.446352   2.711537   2.734938   3.432593   0.000000
     6  H    2.711427   2.509994   3.110435   3.736827   1.102473
     7  H    3.421826   3.733841   3.750386   4.293675   1.105489
     8  H    2.707290   3.070518   2.532408   3.749541   1.101776
     9  C    2.438101   2.692242   3.415317   2.686325   2.444648
    10  H    2.761490   3.136460   3.761040   2.529514   3.435279
    11  H    3.427643   3.711713   4.303108   3.727782   2.709923
    12  H    2.654893   2.438674   3.690903   2.976794   2.750198
    13  C    2.450123   3.430592   2.682866   2.718685   2.472023
    14  H    2.672338   3.684654   2.431111   3.077015   2.682243
    15  H    2.608849   3.641940   2.911042   2.383330   3.431928
    16  C    3.855894   4.712619   4.158980   4.132526   3.064794
    17  H    4.076338   4.731784   4.555208   4.468473   2.827883
    18  H    4.486422   5.355427   4.560064   4.893752   3.374981
    19  C    4.782280   5.685704   5.164781   4.719288   4.482744
    20  H    5.767182   6.616445   6.168855   5.762948   5.150907
    21  H    5.087280   6.091580   5.298018   4.913655   5.087388
    22  N    1.503515   2.164884   2.166595   2.164116   1.502697
    23  C    4.555005   5.327218   5.197788   4.240911   4.740751
    24  O    4.840195   5.411671   5.645425   4.634346   4.741353
    25  O    4.521018   5.333697   5.111343   3.925169   5.306733
    26  O    3.015904   3.610844   3.663571   1.991505   4.877301
    27  H    3.843920   4.328452   4.450325   2.758664   5.801669
    28  H    3.490602   4.205732   4.141220   2.646574   4.926415
                    6          7          8          9         10
     6  H    0.000000
     7  H    1.781695   0.000000
     8  H    1.785306   1.781972   0.000000
     9  C    2.688338   2.716745   3.418960   0.000000
    10  H    3.748916   3.723730   4.301426   1.119835   0.000000
    11  H    3.031538   2.511464   3.739432   1.107911   1.759148
    12  H    2.532565   3.148436   3.752953   1.096644   1.789447
    13  C    3.446531   2.739669   2.716035   2.510595   2.735783
    14  H    3.696059   3.064763   2.453358   3.451602   3.754883
    15  H    4.284307   3.788430   3.704114   2.794080   2.554712
    16  C    4.071125   2.726187   3.429367   3.021732   3.277638
    17  H    3.675546   2.206445   3.454131   2.661501   3.130922
    18  H    4.440826   2.916238   3.448334   3.966743   4.340200
    19  C    5.425925   4.172914   4.901154   3.752043   3.560706
    20  H    6.068080   4.630992   5.599428   4.471578   4.343697
    21  H    6.089907   4.908639   5.322007   4.517257   4.226878
    22  N    2.161419   2.158680   2.161390   1.498927   2.172696
    23  C    5.484566   4.596725   5.385578   3.184486   2.599531
    24  O    5.312170   4.473680   5.573512   2.900099   2.411287
    25  O    6.025416   5.390316   5.858918   3.660285   2.814188
    26  O    5.297962   5.460172   5.356849   3.262540   2.398845
    27  H    6.168900   6.390912   6.279461   4.088625   3.142775
    28  H    5.480313   5.319210   5.457243   3.197792   2.240163
                   11         12         13         14         15
    11  H    0.000000
    12  H    1.796704   0.000000
    13  C    2.825212   3.470826   0.000000
    14  H    3.818541   4.289901   1.108486   0.000000
    15  H    3.259817   3.751718   1.127524   1.782428   0.000000
    16  C    2.732282   4.066089   1.536226   2.188005   2.192292
    17  H    2.025197   3.601966   2.207757   2.977296   2.944869
    18  H    3.650547   4.947947   2.178906   2.309979   2.953705
    19  C    3.414485   4.840614   2.524667   3.229395   2.491469
    20  H    3.894922   5.519490   3.492960   4.149699   3.584059
    21  H    4.362840   5.610413   2.825416   3.250718   2.548727
    22  N    2.174967   2.161157   1.522035   2.147567   2.150726
    23  C    2.966450   4.181720   2.917598   3.889467   2.507887
    24  O    2.399373   3.743454   3.507271   4.578746   3.337337
    25  O    3.782650   4.578895   3.236644   4.086101   2.405380
    26  O    4.072358   3.751568   3.385546   4.030292   2.482377
    27  H    4.872596   4.474424   4.307479   4.918113   3.347223
    28  H    3.767734   3.903705   3.126532   3.902778   2.152780
                   16         17         18         19         20
    16  C    0.000000
    17  H    1.109598   0.000000
    18  H    1.105793   1.767141   0.000000
    19  C    1.529610   2.147933   2.171978   0.000000
    20  H    2.187774   2.462722   2.536165   1.101376   0.000000
    21  H    2.197790   3.086680   2.537960   1.100350   1.769966
    22  N    2.568895   2.605122   3.266062   3.671228   4.536888
    23  C    2.489025   2.730124   3.465402   1.554981   2.171663
    24  O    2.955445   2.703429   3.965435   2.377773   2.637655
    25  O    3.299143   3.764311   4.232665   2.373857   3.144356
    26  O    4.409848   4.816190   5.348105   4.320811   5.320561
    27  H    5.275692   5.683914   6.217632   5.021421   5.977780
    28  H    3.846327   4.280554   4.820103   3.487698   4.437223
                   21         22         23         24         25
    21  H    0.000000
    22  N    4.204069   0.000000
    23  C    2.189389   3.617486   0.000000
    24  O    3.267641   3.775019   1.229262   0.000000
    25  O    2.479860   3.969424   1.250608   2.227112   0.000000
    26  O    4.407691   3.386609   3.375146   3.890338   2.598827
    27  H    5.031435   4.318336   3.955221   4.448832   3.000676
    28  H    3.586776   3.435333   2.445707   3.086001   1.582723
                   26         27         28
    26  O    0.000000
    27  H    0.946109   0.000000
    28  H    1.018637   1.543596   0.000000
 Symmetry turned off by external request.
 Stoichiometry    C7H17NO3
 Framework group  C1[X(C7H17NO3)]
 Deg. of freedom    78
 Full point group                 C1      NOp   1
 Rotational constants (GHZ):           1.3073594           0.8530887           0.6661229
 Leave Link  202 at Tue Jan  3 20:51:53 2023, MaxMem=  6710886400 cpu:               0.1 elap:               0.0
 (Enter /data0/home/software/g16/l122.exe)
 Counterpoise: doing full-system calculation.
 Leave Link  122 at Tue Jan  3 20:51:53 2023, MaxMem=  6710886400 cpu:               0.1 elap:               0.0
 (Enter /data0/home/software/g16/l301.exe)
 Standard basis: 6-311+G(2d,p) (5D, 7F)
 Ernie: Thresh=  0.10000D-02 Tol=  0.10000D-05 Strict=F.
   399 basis functions,   598 primitive gaussians,   421 cartesian basis functions
    45 alpha electrons       45 beta electrons
       nuclear repulsion energy       726.1321963602 Hartrees.
 IExCor= 4336 DFT=T Ex+Corr=M062X ExCW=0 ScaHFX=  0.540000
 ScaDFX=  1.000000  1.000000  1.000000  1.000000 ScalE2=  1.000000  1.000000
 IRadAn=      5 IRanWt=     -1 IRanGd=            0 ICorTp=0 IEmpDi=131
 NAtoms=   28 NActive=   28 NUniq=   28 SFac= 1.00D+00 NAtFMM=   60 NAOKFM=F Big=F
 Integral buffers will be    131072 words long.
 Raffenetti 2 integral format.
 Two-electron integral symmetry is turned off.
 R6Disp:  Grimme-D3 Dispersion energy=       -0.0014008008 Hartrees.
 Nuclear repulsion after empirical dispersion term =      726.1307955594 Hartrees.
 Leave Link  301 at Tue Jan  3 20:51:54 2023, MaxMem=  6710886400 cpu:               1.1 elap:               0.1
 (Enter /data0/home/software/g16/l302.exe)
 NPDir=0 NMtPBC=     1 NCelOv=     1 NCel=       1 NClECP=     1 NCelD=      1
         NCelK=      1 NCelE2=     1 NClLst=     1 CellRange=     0.0.
 One-electron integrals computed using PRISM.
 NBasis=   399 RedAO= T EigKep=  1.28D-05  NBF=   399
 NBsUse=   399 1.00D-06 EigRej= -1.00D+00 NBFU=   399
 Precomputing XC quadrature grid using
 IXCGrd= 4 IRadAn=           5 IRanWt=          -1 IRanGd=           0 AccXCQ= 0.00D+00.
 Generated NRdTot=       0 NPtTot=           0 NUsed=           0 NTot=          32
 NSgBfM=   421   421   421   421   421 MxSgAt=    28 MxSgA2=    28.
 Leave Link  302 at Tue Jan  3 20:51:54 2023, MaxMem=  6710886400 cpu:               8.5 elap:               0.4
 (Enter /data0/home/software/g16/l303.exe)
 DipDrv:  MaxL=1.
 Leave Link  303 at Tue Jan  3 20:51:54 2023, MaxMem=  6710886400 cpu:               1.0 elap:               0.1
 (Enter /data0/home/software/g16/l401.exe)
 ExpMin= 4.38D-02 ExpMax= 8.59D+03 ExpMxC= 1.30D+03 IAcc=3 IRadAn=         5 AccDes= 0.00D+00
 Harris functional with IExCor= 1009 and IRadAn=       5 diagonalized for initial guess.
 HarFok:  IExCor= 1009 AccDes= 0.00D+00 IRadAn=         5 IDoV= 1 UseB2=F ITyADJ=14
 ICtDFT=  3500011 ScaDFX=  1.000000  1.000000  1.000000  1.000000
 FoFCou: FMM=F IPFlag=           0 FMFlag=      100000 FMFlg1=           0
         NFxFlg=           0 DoJE=T BraDBF=F KetDBF=T FulRan=T
         wScrn=  0.000000 ICntrl=       500 IOpCl=  0 I1Cent=   200000004 NGrid=           0
         NMat0=    1 NMatS0=      1 NMatT0=    0 NMatD0=    1 NMtDS0=    0 NMtDT0=    0
 Symmetry not used in FoFCou.
 Harris En= -557.135318395506    
 JPrj=0 DoOrth=F DoCkMO=F.
 Leave Link  401 at Tue Jan  3 20:51:56 2023, MaxMem=  6710886400 cpu:              35.5 elap:               1.5
 (Enter /data0/home/software/g16/l502.exe)
 Two-electron integral symmetry not used.
 Closed shell SCF:
 Using DIIS extrapolation, IDIIS=  1040.
 NGot=  6710886400 LenX=  6710518669 LenY=  6710340987
 Requested convergence on RMS density matrix=1.00D-08 within 128 cycles.
 Requested convergence on MAX density matrix=1.00D-06.
 Requested convergence on             energy=1.00D-06.
 No special actions if energy rises.
 Fock matrices will be formed incrementally for  20 cycles.

 Cycle   1  Pass 1  IDiag  1:
 FoFJK:  IHMeth= 1 ICntrl=       0 DoSepK=F KAlg= 0 I1Cent=           0 FoldK=F
 IRaf= 940000000 NMat=       1 IRICut=       1 DoRegI=T DoRafI=F ISym2E= 0 IDoP0=0 IntGTp=1.
 FoFCou: FMM=F IPFlag=           0 FMFlag=      100000 FMFlg1=           0
         NFxFlg=           0 DoJE=F BraDBF=F KetDBF=F FulRan=T
         wScrn=  0.000000 ICntrl=         0 IOpCl=  0 I1Cent=           0 NGrid=           0
         NMat0=    1 NMatS0=      1 NMatT0=    0 NMatD0=    1 NMtDS0=    0 NMtDT0=    0
 Symmetry not used in FoFCou.
 E= -556.891700263963    
 DIIS: error= 2.67D-02 at cycle   1 NSaved=   1.
 NSaved= 1 IEnMin= 1 EnMin= -556.891700263963     IErMin= 1 ErrMin= 2.67D-02
 ErrMax= 2.67D-02  0.00D+00 EMaxC= 1.00D-01 BMatC= 5.87D-01 BMatP= 5.87D-01
 IDIUse=3 WtCom= 7.33D-01 WtEn= 2.67D-01
 Coeff-Com:  0.100D+01
 Coeff-En:   0.100D+01
 Coeff:      0.100D+01
 Gap=     0.333 Goal=   None    Shift=    0.000
 GapD=    0.333 DampG=1.000 DampE=0.500 DampFc=0.5000 IDamp=-1.
 Damping current iteration by 5.00D-01
 RMSDP=6.80D-03 MaxDP=6.60D-01              OVMax= 1.87D-01

 Cycle   2  Pass 1  IDiag  1:
 RMSU=  3.40D-03    CP:  1.01D+00
 E= -557.089554215761     Delta-E=       -0.197853951799 Rises=F Damp=T
 DIIS: error= 5.43D-03 at cycle   2 NSaved=   2.
 NSaved= 2 IEnMin= 2 EnMin= -557.089554215761     IErMin= 2 ErrMin= 5.43D-03
 ErrMax= 5.43D-03  0.00D+00 EMaxC= 1.00D-01 BMatC= 3.76D-02 BMatP= 5.87D-01
 IDIUse=3 WtCom= 9.46D-01 WtEn= 5.43D-02
 Coeff-Com: -0.186D-02 0.100D+01
 Coeff-En:   0.107D-01 0.989D+00
 Coeff:     -0.118D-02 0.100D+01
 Gap=     0.260 Goal=   None    Shift=    0.000
 RMSDP=2.38D-03 MaxDP=3.03D-01 DE=-1.98D-01 OVMax= 1.08D-01

 Cycle   3  Pass 1  IDiag  1:
 RMSU=  2.18D-03    CP:  9.26D-01  8.62D-01
 E= -557.303097540040     Delta-E=       -0.213543324279 Rises=F Damp=F
 DIIS: error= 2.92D-03 at cycle   3 NSaved=   3.
 NSaved= 3 IEnMin= 3 EnMin= -557.303097540040     IErMin= 3 ErrMin= 2.92D-03
 ErrMax= 2.92D-03  0.00D+00 EMaxC= 1.00D-01 BMatC= 1.06D-02 BMatP= 3.76D-02
 IDIUse=3 WtCom= 9.71D-01 WtEn= 2.92D-02
 Coeff-Com: -0.574D-01 0.319D+00 0.739D+00
 Coeff-En:   0.000D+00 0.000D+00 0.100D+01
 Coeff:     -0.557D-01 0.310D+00 0.746D+00
 Gap=     0.260 Goal=   None    Shift=    0.000
 RMSDP=3.80D-04 MaxDP=3.08D-02 DE=-2.14D-01 OVMax= 2.38D-02

 Cycle   4  Pass 1  IDiag  1:
 RMSU=  3.76D-04    CP:  9.26D-01  8.76D-01  1.01D+00
 E= -557.308780745559     Delta-E=       -0.005683205519 Rises=F Damp=F
 DIIS: error= 1.74D-03 at cycle   4 NSaved=   4.
 NSaved= 4 IEnMin= 4 EnMin= -557.308780745559     IErMin= 4 ErrMin= 1.74D-03
 ErrMax= 1.74D-03  0.00D+00 EMaxC= 1.00D-01 BMatC= 2.56D-03 BMatP= 1.06D-02
 IDIUse=3 WtCom= 9.83D-01 WtEn= 1.74D-02
 Coeff-Com: -0.262D-01 0.756D-01 0.378D+00 0.572D+00
 Coeff-En:   0.000D+00 0.000D+00 0.179D+00 0.821D+00
 Coeff:     -0.257D-01 0.743D-01 0.375D+00 0.577D+00
 Gap=     0.256 Goal=   None    Shift=    0.000
 RMSDP=1.87D-04 MaxDP=2.41D-02 DE=-5.68D-03 OVMax= 1.26D-02

 Cycle   5  Pass 1  IDiag  1:
 RMSU=  1.28D-04    CP:  9.22D-01  8.59D-01  1.02D+00  6.96D-01
 E= -557.310784621137     Delta-E=       -0.002003875577 Rises=F Damp=F
 DIIS: error= 4.18D-04 at cycle   5 NSaved=   5.
 NSaved= 5 IEnMin= 5 EnMin= -557.310784621137     IErMin= 5 ErrMin= 4.18D-04
 ErrMax= 4.18D-04  0.00D+00 EMaxC= 1.00D-01 BMatC= 1.72D-04 BMatP= 2.56D-03
 IDIUse=3 WtCom= 9.96D-01 WtEn= 4.18D-03
 Coeff-Com: -0.964D-02 0.197D-01 0.145D+00 0.292D+00 0.553D+00
 Coeff-En:   0.000D+00 0.000D+00 0.000D+00 0.000D+00 0.100D+01
 Coeff:     -0.960D-02 0.196D-01 0.144D+00 0.291D+00 0.555D+00
 Gap=     0.254 Goal=   None    Shift=    0.000
 RMSDP=5.19D-05 MaxDP=5.23D-03 DE=-2.00D-03 OVMax= 4.89D-03

 Cycle   6  Pass 1  IDiag  1:
 RMSU=  3.66D-05    CP:  9.22D-01  8.58D-01  1.03D+00  7.62D-01  8.04D-01
 E= -557.310898892904     Delta-E=       -0.000114271767 Rises=F Damp=F
 DIIS: error= 1.12D-04 at cycle   6 NSaved=   6.
 NSaved= 6 IEnMin= 6 EnMin= -557.310898892904     IErMin= 6 ErrMin= 1.12D-04
 ErrMax= 1.12D-04  0.00D+00 EMaxC= 1.00D-01 BMatC= 1.59D-05 BMatP= 1.72D-04
 IDIUse=3 WtCom= 9.99D-01 WtEn= 1.12D-03
 Coeff-Com: -0.176D-02 0.149D-02 0.280D-01 0.786D-01 0.277D+00 0.616D+00
 Coeff-En:   0.000D+00 0.000D+00 0.000D+00 0.000D+00 0.000D+00 0.100D+01
 Coeff:     -0.176D-02 0.149D-02 0.280D-01 0.785D-01 0.277D+00 0.617D+00
 Gap=     0.254 Goal=   None    Shift=    0.000
 RMSDP=2.15D-05 MaxDP=1.80D-03 DE=-1.14D-04 OVMax= 9.61D-04

 Cycle   7  Pass 1  IDiag  1:
 RMSU=  1.96D-05    CP:  9.22D-01  8.58D-01  1.03D+00  7.71D-01  8.43D-01
                    CP:  9.61D-01
 E= -557.310911192633     Delta-E=       -0.000012299728 Rises=F Damp=F
 DIIS: error= 3.91D-05 at cycle   7 NSaved=   7.
 NSaved= 7 IEnMin= 7 EnMin= -557.310911192633     IErMin= 7 ErrMin= 3.91D-05
 ErrMax= 3.91D-05  0.00D+00 EMaxC= 1.00D-01 BMatC= 7.13D-07 BMatP= 1.59D-05
 IDIUse=1 WtCom= 1.00D+00 WtEn= 0.00D+00
 Coeff-Com:  0.548D-03-0.182D-02-0.601D-02-0.520D-02 0.336D-01 0.187D+00
 Coeff-Com:  0.792D+00
 Coeff:      0.548D-03-0.182D-02-0.601D-02-0.520D-02 0.336D-01 0.187D+00
 Coeff:      0.792D+00
 Gap=     0.254 Goal=   None    Shift=    0.000
 RMSDP=8.88D-06 MaxDP=7.90D-04 DE=-1.23D-05 OVMax= 2.44D-04

 Cycle   8  Pass 1  IDiag  1:
 RMSU=  5.63D-06    CP:  9.22D-01  8.56D-01  1.03D+00  7.76D-01  8.62D-01
                    CP:  1.01D+00  8.96D-01
 E= -557.310911825091     Delta-E=       -0.000000632459 Rises=F Damp=F
 DIIS: error= 1.48D-05 at cycle   8 NSaved=   8.
 NSaved= 8 IEnMin= 8 EnMin= -557.310911825091     IErMin= 8 ErrMin= 1.48D-05
 ErrMax= 1.48D-05  0.00D+00 EMaxC= 1.00D-01 BMatC= 1.69D-07 BMatP= 7.13D-07
 IDIUse=1 WtCom= 1.00D+00 WtEn= 0.00D+00
 Coeff-Com:  0.455D-03-0.944D-03-0.579D-02-0.119D-01-0.175D-01 0.921D-02
 Coeff-Com:  0.369D+00 0.657D+00
 Coeff:      0.455D-03-0.944D-03-0.579D-02-0.119D-01-0.175D-01 0.921D-02
 Coeff:      0.369D+00 0.657D+00
 Gap=     0.254 Goal=   None    Shift=    0.000
 RMSDP=2.27D-06 MaxDP=1.36D-04 DE=-6.32D-07 OVMax= 8.16D-05

 Cycle   9  Pass 1  IDiag  1:
 RMSU=  1.40D-06    CP:  9.22D-01  8.56D-01  1.03D+00  7.77D-01  8.65D-01
                    CP:  1.02D+00  9.46D-01  1.02D+00
 E= -557.310911968098     Delta-E=       -0.000000143007 Rises=F Damp=F
 DIIS: error= 2.68D-06 at cycle   9 NSaved=   9.
 NSaved= 9 IEnMin= 9 EnMin= -557.310911968098     IErMin= 9 ErrMin= 2.68D-06
 ErrMax= 2.68D-06  0.00D+00 EMaxC= 1.00D-01 BMatC= 9.46D-09 BMatP= 1.69D-07
 IDIUse=1 WtCom= 1.00D+00 WtEn= 0.00D+00
 Coeff-Com:  0.109D-03-0.187D-03-0.145D-02-0.372D-02-0.816D-02-0.114D-01
 Coeff-Com:  0.685D-01 0.232D+00 0.724D+00
 Coeff:      0.109D-03-0.187D-03-0.145D-02-0.372D-02-0.816D-02-0.114D-01
 Coeff:      0.685D-01 0.232D+00 0.724D+00
 Gap=     0.254 Goal=   None    Shift=    0.000
 RMSDP=6.89D-07 MaxDP=4.53D-05 DE=-1.43D-07 OVMax= 3.18D-05

 Cycle  10  Pass 1  IDiag  1:
 RMSU=  5.83D-07    CP:  9.22D-01  8.56D-01  1.03D+00  7.77D-01  8.64D-01
                    CP:  1.02D+00  9.50D-01  1.06D+00  1.11D+00
 E= -557.310911976490     Delta-E=       -0.000000008392 Rises=F Damp=F
 DIIS: error= 1.04D-06 at cycle  10 NSaved=  10.
 NSaved=10 IEnMin=10 EnMin= -557.310911976490     IErMin=10 ErrMin= 1.04D-06
 ErrMax= 1.04D-06  0.00D+00 EMaxC= 1.00D-01 BMatC= 9.83D-10 BMatP= 9.46D-09
 IDIUse=1 WtCom= 1.00D+00 WtEn= 0.00D+00
 Coeff-Com: -0.215D-04 0.500D-04 0.222D-03 0.158D-03-0.340D-03-0.518D-02
 Coeff-Com: -0.244D-01-0.940D-02 0.223D+00 0.816D+00
 Coeff:     -0.215D-04 0.500D-04 0.222D-03 0.158D-03-0.340D-03-0.518D-02
 Coeff:     -0.244D-01-0.940D-02 0.223D+00 0.816D+00
 Gap=     0.254 Goal=   None    Shift=    0.000
 RMSDP=2.88D-07 MaxDP=3.13D-05 DE=-8.39D-09 OVMax= 1.34D-05

 Cycle  11  Pass 1  IDiag  1:
 RMSU=  1.51D-07    CP:  9.22D-01  8.56D-01  1.03D+00  7.77D-01  8.64D-01
                    CP:  1.02D+00  9.45D-01  1.09D+00  1.21D+00  1.04D+00
 E= -557.310911977631     Delta-E=       -0.000000001141 Rises=F Damp=F
 DIIS: error= 3.56D-07 at cycle  11 NSaved=  11.
 NSaved=11 IEnMin=11 EnMin= -557.310911977631     IErMin=11 ErrMin= 3.56D-07
 ErrMax= 3.56D-07  0.00D+00 EMaxC= 1.00D-01 BMatC= 1.42D-10 BMatP= 9.83D-10
 IDIUse=1 WtCom= 1.00D+00 WtEn= 0.00D+00
 Coeff-Com: -0.190D-04 0.392D-04 0.229D-03 0.406D-03 0.760D-03-0.926D-03
 Coeff-Com: -0.153D-01-0.262D-01 0.123D-01 0.318D+00 0.711D+00
 Coeff:     -0.190D-04 0.392D-04 0.229D-03 0.406D-03 0.760D-03-0.926D-03
 Coeff:     -0.153D-01-0.262D-01 0.123D-01 0.318D+00 0.711D+00
 Gap=     0.254 Goal=   None    Shift=    0.000
 RMSDP=8.43D-08 MaxDP=8.40D-06 DE=-1.14D-09 OVMax= 4.11D-06

 Cycle  12  Pass 1  IDiag  1:
 RMSU=  3.54D-08    CP:  9.22D-01  8.56D-01  1.03D+00  7.77D-01  8.64D-01
                    CP:  1.01D+00  9.44D-01  1.09D+00  1.23D+00  1.08D+00
                    CP:  1.06D+00
 E= -557.310911977759     Delta-E=       -0.000000000127 Rises=F Damp=F
 DIIS: error= 8.47D-08 at cycle  12 NSaved=  12.
 NSaved=12 IEnMin=12 EnMin= -557.310911977759     IErMin=12 ErrMin= 8.47D-08
 ErrMax= 8.47D-08  0.00D+00 EMaxC= 1.00D-01 BMatC= 8.16D-12 BMatP= 1.42D-10
 IDIUse=1 WtCom= 1.00D+00 WtEn= 0.00D+00
 Coeff-Com: -0.156D-05 0.290D-05 0.294D-04 0.626D-04 0.215D-03 0.152D-03
 Coeff-Com: -0.877D-03-0.458D-02-0.183D-01-0.117D-01 0.133D+00 0.902D+00
 Coeff:     -0.156D-05 0.290D-05 0.294D-04 0.626D-04 0.215D-03 0.152D-03
 Coeff:     -0.877D-03-0.458D-02-0.183D-01-0.117D-01 0.133D+00 0.902D+00
 Gap=     0.254 Goal=   None    Shift=    0.000
 RMSDP=2.41D-08 MaxDP=3.07D-06 DE=-1.27D-10 OVMax= 1.73D-06

 Cycle  13  Pass 1  IDiag  1:
 RMSU=  1.60D-08    CP:  9.22D-01  8.56D-01  1.03D+00  7.77D-01  8.64D-01
                    CP:  1.01D+00  9.44D-01  1.09D+00  1.23D+00  1.10D+00
                    CP:  1.09D+00  1.09D+00
 E= -557.310911977769     Delta-E=       -0.000000000010 Rises=F Damp=F
 DIIS: error= 4.20D-08 at cycle  13 NSaved=  13.
 NSaved=13 IEnMin=13 EnMin= -557.310911977769     IErMin=13 ErrMin= 4.20D-08
 ErrMax= 4.20D-08  0.00D+00 EMaxC= 1.00D-01 BMatC= 1.90D-12 BMatP= 8.16D-12
 IDIUse=1 WtCom= 1.00D+00 WtEn= 0.00D+00
 Coeff-Com:  0.172D-05-0.343D-05-0.144D-04-0.228D-04 0.108D-04 0.147D-03
 Coeff-Com:  0.142D-02 0.899D-03-0.923D-02-0.404D-01-0.277D-01 0.369D+00
 Coeff-Com:  0.706D+00
 Coeff:      0.172D-05-0.343D-05-0.144D-04-0.228D-04 0.108D-04 0.147D-03
 Coeff:      0.142D-02 0.899D-03-0.923D-02-0.404D-01-0.277D-01 0.369D+00
 Coeff:      0.706D+00
 Gap=     0.254 Goal=   None    Shift=    0.000
 RMSDP=7.26D-09 MaxDP=3.24D-07 DE=-1.02D-11 OVMax= 5.78D-07

 SCF Done:  E(RM062X) =  -557.310911978     A.U. after   13 cycles
            NFock= 13  Conv=0.73D-08     -V/T= 2.0044
 KE= 5.548911546120D+02 PE=-2.754805220987D+03 EE= 9.164723588376D+02
 Leave Link  502 at Tue Jan  3 20:52:55 2023, MaxMem=  6710886400 cpu:            1418.1 elap:              59.3
 (Enter /data0/home/software/g16/l601.exe)
 Copying SCF densities to generalized density rwf, IOpCl= 0 IROHF=0.

 **********************************************************************

            Population analysis using the SCF density.

 **********************************************************************

 Alpha  occ. eigenvalues --  -19.58018 -19.52912 -19.52542 -14.90745 -10.63206
 Alpha  occ. eigenvalues --  -10.61445 -10.60956 -10.59678 -10.58935 -10.55770
 Alpha  occ. eigenvalues --  -10.51430  -1.15226  -1.12751  -1.08925  -1.02934
 Alpha  occ. eigenvalues --   -0.90794  -0.87007  -0.85358  -0.81769  -0.74210
 Alpha  occ. eigenvalues --   -0.69314  -0.62673  -0.62057  -0.60629  -0.58281
 Alpha  occ. eigenvalues --   -0.56092  -0.54030  -0.53065  -0.51194  -0.50865
 Alpha  occ. eigenvalues --   -0.49718  -0.48953  -0.48479  -0.47756  -0.46572
 Alpha  occ. eigenvalues --   -0.45569  -0.44320  -0.43409  -0.41923  -0.40413
 Alpha  occ. eigenvalues --   -0.39493  -0.36343  -0.28884  -0.27962  -0.27191
 Alpha virt. eigenvalues --   -0.01780   0.00348   0.00565   0.01799   0.02804
 Alpha virt. eigenvalues --    0.03841   0.04159   0.04582   0.05407   0.06472
 Alpha virt. eigenvalues --    0.07011   0.07786   0.08288   0.08677   0.09033
 Alpha virt. eigenvalues --    0.09936   0.11054   0.11408   0.11722   0.11885
 Alpha virt. eigenvalues --    0.12205   0.12754   0.13501   0.14440   0.14699
 Alpha virt. eigenvalues --    0.14864   0.15940   0.16052   0.16391   0.17255
 Alpha virt. eigenvalues --    0.17498   0.18595   0.18702   0.19271   0.19874
 Alpha virt. eigenvalues --    0.20305   0.20839   0.21525   0.21838   0.22198
 Alpha virt. eigenvalues --    0.24196   0.24465   0.24933   0.25791   0.25901
 Alpha virt. eigenvalues --    0.26353   0.26680   0.27337   0.27999   0.28399
 Alpha virt. eigenvalues --    0.29273   0.30321   0.31127   0.31543   0.31926
 Alpha virt. eigenvalues --    0.33161   0.33419   0.34835   0.35972   0.36852
 Alpha virt. eigenvalues --    0.37198   0.37749   0.38242   0.39310   0.39709
 Alpha virt. eigenvalues --    0.40318   0.42023   0.42401   0.43759   0.44967
 Alpha virt. eigenvalues --    0.45927   0.47328   0.48001   0.50564   0.51496
 Alpha virt. eigenvalues --    0.51811   0.52651   0.53402   0.53889   0.55064
 Alpha virt. eigenvalues --    0.55428   0.57212   0.58109   0.58581   0.59484
 Alpha virt. eigenvalues --    0.60143   0.60977   0.61034   0.61659   0.62040
 Alpha virt. eigenvalues --    0.62991   0.64352   0.65513   0.66417   0.66715
 Alpha virt. eigenvalues --    0.67286   0.68426   0.69131   0.70061   0.71038
 Alpha virt. eigenvalues --    0.71635   0.73045   0.74120   0.74304   0.75047
 Alpha virt. eigenvalues --    0.76466   0.77714   0.78262   0.78958   0.79631
 Alpha virt. eigenvalues --    0.80287   0.82207   0.82875   0.85346   0.86640
 Alpha virt. eigenvalues --    0.88544   0.90569   0.90874   0.93783   0.94837
 Alpha virt. eigenvalues --    0.95822   0.97639   0.97824   1.01288   1.02737
 Alpha virt. eigenvalues --    1.07162   1.10529   1.10609   1.11327   1.12673
 Alpha virt. eigenvalues --    1.13664   1.15167   1.15938   1.17146   1.18004
 Alpha virt. eigenvalues --    1.18397   1.19671   1.20208   1.21435   1.23198
 Alpha virt. eigenvalues --    1.23755   1.24531   1.25142   1.26548   1.27846
 Alpha virt. eigenvalues --    1.29222   1.31324   1.32408   1.32962   1.33824
 Alpha virt. eigenvalues --    1.34859   1.36648   1.37121   1.38453   1.39619
 Alpha virt. eigenvalues --    1.41187   1.41463   1.42269   1.43309   1.44113
 Alpha virt. eigenvalues --    1.46556   1.47162   1.49266   1.49533   1.50149
 Alpha virt. eigenvalues --    1.51891   1.55620   1.58657   1.59959   1.61122
 Alpha virt. eigenvalues --    1.65918   1.66243   1.67429   1.69144   1.70485
 Alpha virt. eigenvalues --    1.72878   1.73832   1.75821   1.77398   1.78223
 Alpha virt. eigenvalues --    1.79838   1.82176   1.83016   1.84539   1.85702
 Alpha virt. eigenvalues --    1.85833   1.87112   1.88437   1.89456   1.90820
 Alpha virt. eigenvalues --    1.91753   1.92366   1.95043   1.97354   1.97735
 Alpha virt. eigenvalues --    1.99385   2.01937   2.04224   2.05907   2.11809
 Alpha virt. eigenvalues --    2.12502   2.13363   2.14865   2.15181   2.20578
 Alpha virt. eigenvalues --    2.20789   2.22340   2.23513   2.24568   2.26511
 Alpha virt. eigenvalues --    2.27994   2.28063   2.29220   2.32798   2.34390
 Alpha virt. eigenvalues --    2.35078   2.35653   2.35983   2.37326   2.37660
 Alpha virt. eigenvalues --    2.39183   2.39444   2.41132   2.41483   2.42238
 Alpha virt. eigenvalues --    2.44941   2.47065   2.47598   2.49861   2.52317
 Alpha virt. eigenvalues --    2.53614   2.58268   2.60610   2.63052   2.64401
 Alpha virt. eigenvalues --    2.65881   2.67262   2.69400   2.73141   2.76246
 Alpha virt. eigenvalues --    2.78804   2.81691   2.83497   2.83672   2.85702
 Alpha virt. eigenvalues --    2.86275   2.91613   2.94463   2.97696   3.00661
 Alpha virt. eigenvalues --    3.02055   3.05619   3.05797   3.08760   3.10327
 Alpha virt. eigenvalues --    3.14043   3.17417   3.18133   3.21139   3.23451
 Alpha virt. eigenvalues --    3.24070   3.24960   3.30814   3.33320   3.34344
 Alpha virt. eigenvalues --    3.35093   3.36574   3.37977   3.38795   3.39444
 Alpha virt. eigenvalues --    3.41334   3.46680   3.50232   3.52543   3.54644
 Alpha virt. eigenvalues --    3.55317   3.57193   3.59176   3.60038   3.62033
 Alpha virt. eigenvalues --    3.62478   3.63536   3.64229   3.65945   3.66703
 Alpha virt. eigenvalues --    3.70826   3.71161   3.72023   3.74086   3.76118
 Alpha virt. eigenvalues --    3.78433   3.81164   3.81767   3.84734   3.85832
 Alpha virt. eigenvalues --    3.91305   3.95354   3.97262   4.04422   4.13174
 Alpha virt. eigenvalues --    4.14001   4.15540   4.15894   4.17759   4.18980
 Alpha virt. eigenvalues --    4.21148   4.26236   4.28396   4.38973   4.42254
 Alpha virt. eigenvalues --    4.53823   4.78109   4.81180   4.83844   5.16469
 Alpha virt. eigenvalues --    5.23397   5.24415   5.36095   5.37758   5.41990
 Alpha virt. eigenvalues --    5.45944   5.47139   5.48102   5.50980   5.70110
 Alpha virt. eigenvalues --    5.96356   6.05595   6.29016   6.82965   6.86907
 Alpha virt. eigenvalues --    6.89605   6.93936   6.96028   6.98037   7.01627
 Alpha virt. eigenvalues --    7.08028   7.13513   7.19764   7.20534   7.26535
 Alpha virt. eigenvalues --    7.31465   7.38589   7.48744  23.95800  24.00450
 Alpha virt. eigenvalues --   24.05684  24.08531  24.09697  24.11311  24.29229
 Alpha virt. eigenvalues --   35.51845  50.09963  50.22537  50.24702
          Condensed to atoms (all electrons):
               1          2          3          4          5          6
     1  C    5.684787   0.396885   0.387325   0.430826  -0.139388  -0.022611
     2  H    0.396885   0.474471  -0.022800  -0.014543  -0.016430   0.000159
     3  H    0.387325  -0.022800   0.473564  -0.016613  -0.019412   0.000284
     4  H    0.430826  -0.014543  -0.016613   0.353738   0.008719   0.000127
     5  C   -0.139388  -0.016430  -0.019412   0.008719   5.563185   0.394362
     6  H   -0.022611   0.000159   0.000284   0.000127   0.394362   0.458967
     7  H    0.023459   0.000059   0.000159  -0.000167   0.408718  -0.018322
     8  H   -0.015028   0.000372   0.001080   0.000201   0.409178  -0.020085
     9  C   -0.186235  -0.030161   0.035541  -0.020909  -0.206289  -0.018557
    10  H   -0.005707  -0.000097  -0.000105   0.000227   0.013512   0.000280
    11  H    0.025392   0.000147  -0.000242   0.000344  -0.006504  -0.000192
    12  H   -0.019285  -0.001342   0.000185   0.000472  -0.021341  -0.000073
    13  C   -0.390725   0.045804  -0.027898  -0.016715  -0.280744   0.045594
    14  H   -0.005418   0.000118   0.000581   0.000378  -0.019723  -0.000011
    15  H    0.014432   0.000004  -0.000327   0.000055   0.007731  -0.000280
    16  C    0.017415   0.002322  -0.005336  -0.002645   0.000634   0.003902
    17  H    0.014151  -0.000013   0.000026   0.000038  -0.013257  -0.000313
    18  H   -0.002901  -0.000007   0.000009  -0.000009  -0.000435  -0.000072
    19  C    0.015799  -0.001090   0.004872  -0.000133  -0.068555   0.000383
    20  H   -0.000038  -0.000001   0.000000  -0.000002   0.000594  -0.000002
    21  H    0.001604   0.000000  -0.000015  -0.000019   0.000380  -0.000001
    22  N    0.256953  -0.023661   0.000600  -0.027681   0.295826  -0.026547
    23  C   -0.022028   0.000859  -0.001671   0.000012   0.029187   0.000494
    24  O   -0.004225  -0.000079  -0.000001   0.000321  -0.006271   0.000012
    25  O    0.006848  -0.000005   0.000164  -0.001122   0.002744  -0.000027
    26  O   -0.040463   0.000268  -0.000222  -0.014928   0.005426  -0.000085
    27  H    0.008824  -0.000046  -0.000060   0.002318   0.000423  -0.000003
    28  H   -0.001372  -0.000064  -0.000026   0.001761  -0.000203   0.000014
               7          8          9         10         11         12
     1  C    0.023459  -0.015028  -0.186235  -0.005707   0.025392  -0.019285
     2  H    0.000059   0.000372  -0.030161  -0.000097   0.000147  -0.001342
     3  H    0.000159   0.001080   0.035541  -0.000105  -0.000242   0.000185
     4  H   -0.000167   0.000201  -0.020909   0.000227   0.000344   0.000472
     5  C    0.408718   0.409178  -0.206289   0.013512  -0.006504  -0.021341
     6  H   -0.018322  -0.020085  -0.018557   0.000280  -0.000192  -0.000073
     7  H    0.453563  -0.019703  -0.016235   0.000385   0.000794   0.000494
     8  H   -0.019703   0.453445   0.024359  -0.000207  -0.000037   0.000197
     9  C   -0.016235   0.024359   5.884887   0.380176   0.420783   0.376463
    10  H    0.000385  -0.000207   0.380176   0.380586  -0.014185  -0.015411
    11  H    0.000794  -0.000037   0.420783  -0.014185   0.424773  -0.016826
    12  H    0.000494   0.000197   0.376463  -0.015411  -0.016826   0.462958
    13  C   -0.045137  -0.006662  -0.414894  -0.033305  -0.021114   0.043034
    14  H    0.000278  -0.001226   0.021226   0.000571   0.000025  -0.000115
    15  H    0.000055   0.000381  -0.008039  -0.004663  -0.000492  -0.000007
    16  C    0.014996  -0.011603  -0.230691   0.017243  -0.025007   0.005782
    17  H    0.000946   0.000151  -0.009829   0.000102   0.000240  -0.000038
    18  H   -0.000243   0.000473   0.005876  -0.000232   0.000281  -0.000020
    19  C    0.003843   0.000523   0.282432  -0.013075   0.034153  -0.007930
    20  H    0.000010   0.000002  -0.000481   0.000040  -0.000052   0.000000
    21  H   -0.000010  -0.000004  -0.001521  -0.000016  -0.000124   0.000003
    22  N   -0.017973  -0.019744   0.307612   0.002046  -0.026444  -0.015023
    23  C    0.000065  -0.001259  -0.170767   0.027959  -0.031889   0.007604
    24  O   -0.000175   0.000079  -0.065139  -0.011604   0.001696   0.004137
    25  O    0.000041  -0.000033   0.024374   0.003910   0.000470  -0.000955
    26  O   -0.000025  -0.000056  -0.004503  -0.009200   0.001376  -0.000475
    27  H   -0.000002  -0.000002   0.003424   0.000903  -0.000005  -0.000071
    28  H    0.000003   0.000003  -0.021435   0.004971  -0.000774   0.000444
              13         14         15         16         17         18
     1  C   -0.390725  -0.005418   0.014432   0.017415   0.014151  -0.002901
     2  H    0.045804   0.000118   0.000004   0.002322  -0.000013  -0.000007
     3  H   -0.027898   0.000581  -0.000327  -0.005336   0.000026   0.000009
     4  H   -0.016715   0.000378   0.000055  -0.002645   0.000038  -0.000009
     5  C   -0.280744  -0.019723   0.007731   0.000634  -0.013257  -0.000435
     6  H    0.045594  -0.000011  -0.000280   0.003902  -0.000313  -0.000072
     7  H   -0.045137   0.000278   0.000055   0.014996   0.000946  -0.000243
     8  H   -0.006662  -0.001226   0.000381  -0.011603   0.000151   0.000473
     9  C   -0.414894   0.021226  -0.008039  -0.230691  -0.009829   0.005876
    10  H   -0.033305   0.000571  -0.004663   0.017243   0.000102  -0.000232
    11  H   -0.021114   0.000025  -0.000492  -0.025007   0.000240   0.000281
    12  H    0.043034  -0.000115  -0.000007   0.005782  -0.000038  -0.000020
    13  C    7.412750   0.335124   0.358906  -0.004881  -0.169648   0.004976
    14  H    0.335124   0.482270  -0.018750  -0.045209   0.003936  -0.012642
    15  H    0.358906  -0.018750   0.404384  -0.032402   0.002173   0.002174
    16  C   -0.004881  -0.045209  -0.032402   5.892692   0.510522   0.402781
    17  H   -0.169648   0.003936   0.002173   0.510522   0.515929  -0.038270
    18  H    0.004976  -0.012642   0.002174   0.402781  -0.038270   0.530293
    19  C   -0.500954   0.044441  -0.022544  -0.336837  -0.041986  -0.050431
    20  H    0.047738  -0.000197   0.000486  -0.056370  -0.005707  -0.002470
    21  H   -0.023933  -0.000820   0.001265   0.001802   0.005590  -0.006416
    22  N   -0.313114   0.027750   0.009099   0.001769   0.083550  -0.020715
    23  C    0.225186  -0.009341   0.004550   0.097242  -0.016002   0.028946
    24  O    0.096112  -0.000955  -0.003484   0.053940  -0.006151  -0.000186
    25  O   -0.106782   0.003197   0.029906  -0.063164   0.002965  -0.002627
    26  O   -0.046703   0.000528   0.012862   0.003709   0.000133  -0.000088
    27  H    0.005112  -0.000017  -0.000009  -0.002220  -0.000004   0.000003
    28  H    0.025245  -0.000490  -0.006227   0.007760  -0.000406   0.000151
              19         20         21         22         23         24
     1  C    0.015799  -0.000038   0.001604   0.256953  -0.022028  -0.004225
     2  H   -0.001090  -0.000001   0.000000  -0.023661   0.000859  -0.000079
     3  H    0.004872   0.000000  -0.000015   0.000600  -0.001671  -0.000001
     4  H   -0.000133  -0.000002  -0.000019  -0.027681   0.000012   0.000321
     5  C   -0.068555   0.000594   0.000380   0.295826   0.029187  -0.006271
     6  H    0.000383  -0.000002  -0.000001  -0.026547   0.000494   0.000012
     7  H    0.003843   0.000010  -0.000010  -0.017973   0.000065  -0.000175
     8  H    0.000523   0.000002  -0.000004  -0.019744  -0.001259   0.000079
     9  C    0.282432  -0.000481  -0.001521   0.307612  -0.170767  -0.065139
    10  H   -0.013075   0.000040  -0.000016   0.002046   0.027959  -0.011604
    11  H    0.034153  -0.000052  -0.000124  -0.026444  -0.031889   0.001696
    12  H   -0.007930   0.000000   0.000003  -0.015023   0.007604   0.004137
    13  C   -0.500954   0.047738  -0.023933  -0.313114   0.225186   0.096112
    14  H    0.044441  -0.000197  -0.000820   0.027750  -0.009341  -0.000955
    15  H   -0.022544   0.000486   0.001265   0.009099   0.004550  -0.003484
    16  C   -0.336837  -0.056370   0.001802   0.001769   0.097242   0.053940
    17  H   -0.041986  -0.005707   0.005590   0.083550  -0.016002  -0.006151
    18  H   -0.050431  -0.002470  -0.006416  -0.020715   0.028946  -0.000186
    19  C    6.730173   0.420426   0.430536   0.007872  -0.355328  -0.237160
    20  H    0.420426   0.517237  -0.032344  -0.002062  -0.057232  -0.008248
    21  H    0.430536  -0.032344   0.505193   0.007716  -0.057594   0.007268
    22  N    0.007872  -0.002062   0.007716   6.739846  -0.005268  -0.046843
    23  C   -0.355328  -0.057232  -0.057594  -0.005268   5.319010   0.488323
    24  O   -0.237160  -0.008248   0.007268  -0.046843   0.488323   8.331519
    25  O   -0.006752   0.009602  -0.014816   0.040653   0.307047  -0.100483
    26  O    0.020515  -0.000059  -0.000380   0.045577  -0.025777  -0.005334
    27  H    0.000398   0.000001  -0.000000  -0.007486  -0.001431  -0.000372
    28  H   -0.038649  -0.000129   0.000571   0.003468   0.059979   0.006748
              25         26         27         28
     1  C    0.006848  -0.040463   0.008824  -0.001372
     2  H   -0.000005   0.000268  -0.000046  -0.000064
     3  H    0.000164  -0.000222  -0.000060  -0.000026
     4  H   -0.001122  -0.014928   0.002318   0.001761
     5  C    0.002744   0.005426   0.000423  -0.000203
     6  H   -0.000027  -0.000085  -0.000003   0.000014
     7  H    0.000041  -0.000025  -0.000002   0.000003
     8  H   -0.000033  -0.000056  -0.000002   0.000003
     9  C    0.024374  -0.004503   0.003424  -0.021435
    10  H    0.003910  -0.009200   0.000903   0.004971
    11  H    0.000470   0.001376  -0.000005  -0.000774
    12  H   -0.000955  -0.000475  -0.000071   0.000444
    13  C   -0.106782  -0.046703   0.005112   0.025245
    14  H    0.003197   0.000528  -0.000017  -0.000490
    15  H    0.029906   0.012862  -0.000009  -0.006227
    16  C   -0.063164   0.003709  -0.002220   0.007760
    17  H    0.002965   0.000133  -0.000004  -0.000406
    18  H   -0.002627  -0.000088   0.000003   0.000151
    19  C   -0.006752   0.020515   0.000398  -0.038649
    20  H    0.009602  -0.000059   0.000001  -0.000129
    21  H   -0.014816  -0.000380  -0.000000   0.000571
    22  N    0.040653   0.045577  -0.007486   0.003468
    23  C    0.307047  -0.025777  -0.001431   0.059979
    24  O   -0.100483  -0.005334  -0.000372   0.006748
    25  O    8.448560  -0.065874   0.003149   0.054364
    26  O   -0.065874   8.396553   0.245148   0.236624
    27  H    0.003149   0.245148   0.436319  -0.017664
    28  H    0.054364   0.236624  -0.017664   0.288567
 Mulliken charges:
               1
     1  C   -0.429273
     2  H    0.188872
     3  H    0.190339
     4  H    0.315950
     5  C   -0.342067
     6  H    0.202602
     7  H    0.210127
     8  H    0.205206
     9  C   -0.361467
    10  H    0.274895
    11  H    0.233413
    12  H    0.197140
    13  C   -0.242372
    14  H    0.194494
    15  H    0.248763
    16  C   -0.218145
    17  H    0.161172
    18  H    0.161801
    19  C   -0.314941
    20  H    0.169260
    21  H    0.176086
    22  N   -0.277775
    23  C    0.159124
    24  O   -0.493445
    25  O   -0.575351
    26  O   -0.754547
    27  H    0.323370
    28  H    0.396769
 Sum of Mulliken charges =  -0.00000
 Mulliken charges with hydrogens summed into heavy atoms:
               1
     1  C    0.265888
     5  C    0.275867
     9  C    0.343982
    13  C    0.200885
    16  C    0.104828
    19  C    0.030405
    22  N   -0.277775
    23  C    0.159124
    24  O   -0.493445
    25  O   -0.575351
    26  O   -0.034408
         Mulliken charges condensed to fragments:
      1      0.034408
      2     -0.034408
 Electronic spatial extent (au):  <R**2>=         175074.1572
 Charge=             -0.0000 electrons
 Dipole moment (field-independent basis, Debye):
    X=              9.5191    Y=              1.6089    Z=             -5.3823  Tot=             11.0531
 Quadrupole moment (field-independent basis, Debye-Ang):
   XX=            182.9041   YY=            -10.7792   ZZ=           -116.9331
   XY=            189.7614   XZ=            -28.2901   YZ=            -93.2135
 Traceless Quadrupole moment (field-independent basis, Debye-Ang):
   XX=            164.5069   YY=            -29.1765   ZZ=           -135.3303
   XY=            189.7614   XZ=            -28.2901   YZ=            -93.2135
 Octapole moment (field-independent basis, Debye-Ang**2):
  XXX=           2269.2292  YYY=          -2224.5826  ZZZ=          -1263.1416  XYY=           2836.4185
  XXY=           3481.5172  XXZ=           -141.8529  XZZ=          -1350.2765  YZZ=          -2141.1299
  YYZ=          -1933.0724  XYZ=           -471.2314
 Hexadecapole moment (field-independent basis, Debye-Ang**3):
 XXXX=          14954.0501 YYYY=        -102160.0758 ZZZZ=         -11172.3339 XXXY=          42438.8578
 XXXZ=          -3113.0069 YYYX=          23238.6185 YYYZ=         -45494.2574 ZZZX=         -15702.3039
 ZZZY=         -23300.5040 XXYY=          53707.8462 XXZZ=         -17242.9580 YYZZ=         -40925.3327
 XXYZ=          -2261.2876 YYXZ=         -12030.0397 ZZXY=         -24801.0354
 N-N= 7.261307955594D+02 E-N=-2.754805236528D+03  KE= 5.548911546119D+02
 No NMR shielding tensors so no spin-rotation constants.
 Leave Link  601 at Tue Jan  3 20:52:55 2023, MaxMem=  6710886400 cpu:               3.0 elap:               0.2
 (Enter /data0/home/software/g16/l122.exe)
 CPIOFr:  IOpCl= 0 IRwI=-1 IRwCP=  731 ICalc= -1 LCPTot=      247647 Len1MO=      645595 IndFrg=      247647
 CPIOFr:  IOpCl= 0 IRwI=-1 IRwCP=  731 ICalc=  0 LCPTot=      247647 Len1MO=      645595 IndFrg=      893242
 Counterpoise: doing calculation for fragment   1 using the basis set of the full-system, NewBq=T
 Leave Link  122 at Tue Jan  3 20:52:55 2023, MaxMem=  6710886400 cpu:               0.3 elap:               0.0
 (Enter /data0/home/software/g16/l301.exe)
 Basis read from rwf:  (5D, 7F)
 No pseudopotential information found on rwf file.
   399 basis functions,   598 primitive gaussians,   421 cartesian basis functions
    40 alpha electrons       40 beta electrons
       nuclear repulsion energy       597.9305265404 Hartrees.
 IExCor= 4336 DFT=T Ex+Corr=M062X ExCW=0 ScaHFX=  0.540000
 ScaDFX=  1.000000  1.000000  1.000000  1.000000 ScalE2=  1.000000  1.000000
 IRadAn=      5 IRanWt=     -1 IRanGd=            0 ICorTp=0 IEmpDi=131
 NAtoms=   28 NActive=   28 NUniq=   28 SFac= 1.00D+00 NAtFMM=   60 NAOKFM=F Big=F
 Integral buffers will be    131072 words long.
 Raffenetti 2 integral format.
 Two-electron integral symmetry is turned off.
 R6Disp:  Grimme-D3 Dispersion energy=       -0.0010139998 Hartrees.
 Nuclear repulsion after empirical dispersion term =      597.9295125406 Hartrees.
 No density basis found on file   718.
 Leave Link  301 at Tue Jan  3 20:52:55 2023, MaxMem=  6710886400 cpu:               1.3 elap:               0.1
 (Enter /data0/home/software/g16/l302.exe)
 NPDir=0 NMtPBC=     1 NCelOv=     1 NCel=       1 NClECP=     1 NCelD=      1
         NCelK=      1 NCelE2=     1 NClLst=     1 CellRange=     0.0.
 One-electron integrals computed using PRISM.
 NBasis=   399 RedAO= T EigKep=  1.28D-05  NBF=   399
 NBsUse=   399 1.00D-06 EigRej= -1.00D+00 NBFU=   399
 Precomputing XC quadrature grid using
 IXCGrd= 4 IRadAn=           5 IRanWt=          -1 IRanGd=           0 AccXCQ= 0.00D+00.
 Generated NRdTot=       0 NPtTot=           0 NUsed=           0 NTot=          32
 NSgBfM=   421   421   421   421   421 MxSgAt=    28 MxSgA2=    28.
 Leave Link  302 at Tue Jan  3 20:52:55 2023, MaxMem=  6710886400 cpu:               8.4 elap:               0.4
 (Enter /data0/home/software/g16/l303.exe)
 DipDrv:  MaxL=1.
 Leave Link  303 at Tue Jan  3 20:52:56 2023, MaxMem=  6710886400 cpu:               0.9 elap:               0.1
 (Enter /data0/home/software/g16/l401.exe)
 ExpMin= 4.38D-02 ExpMax= 8.59D+03 ExpMxC= 1.30D+03 IAcc=3 IRadAn=         5 AccDes= 0.00D+00
 Harris functional with IExCor= 1009 and IRadAn=       5 diagonalized for initial guess.
 HarFok:  IExCor= 1009 AccDes= 0.00D+00 IRadAn=         5 IDoV= 1 UseB2=F ITyADJ=14
 ICtDFT=  3500011 ScaDFX=  1.000000  1.000000  1.000000  1.000000
 FoFCou: FMM=F IPFlag=           0 FMFlag=      100000 FMFlg1=           0
         NFxFlg=           0 DoJE=T BraDBF=F KetDBF=T FulRan=T
         wScrn=  0.000000 ICntrl=       500 IOpCl=  0 I1Cent=   200000004 NGrid=           0
         NMat0=    1 NMatS0=      1 NMatT0=    0 NMatD0=    1 NMtDS0=    0 NMtDT0=    0
 Symmetry not used in FoFCou.
 Harris En= -480.723055807456    
 JPrj=0 DoOrth=F DoCkMO=F.
 Leave Link  401 at Tue Jan  3 20:52:57 2023, MaxMem=  6710886400 cpu:              35.2 elap:               1.5
 (Enter /data0/home/software/g16/l502.exe)
 Two-electron integral symmetry not used.
 Closed shell SCF:
 Using DIIS extrapolation, IDIIS=  1040.
 NGot=  6710886400 LenX=  6710518669 LenY=  6710340987
 Requested convergence on RMS density matrix=1.00D-08 within 128 cycles.
 Requested convergence on MAX density matrix=1.00D-06.
 Requested convergence on             energy=1.00D-06.
 No special actions if energy rises.
 Fock matrices will be formed incrementally for  20 cycles.

 Cycle   1  Pass 1  IDiag  1:
 FoFJK:  IHMeth= 1 ICntrl=       0 DoSepK=F KAlg= 0 I1Cent=           0 FoldK=F
 IRaf= 940000000 NMat=       1 IRICut=       1 DoRegI=T DoRafI=F ISym2E= 0 IDoP0=0 IntGTp=1.
 FoFCou: FMM=F IPFlag=           0 FMFlag=      100000 FMFlg1=           0
         NFxFlg=           0 DoJE=F BraDBF=F KetDBF=F FulRan=T
         wScrn=  0.000000 ICntrl=         0 IOpCl=  0 I1Cent=           0 NGrid=           0
         NMat0=    1 NMatS0=      1 NMatT0=    0 NMatD0=    1 NMtDS0=    0 NMtDT0=    0
 Symmetry not used in FoFCou.
 E= -480.484840809976    
 DIIS: error= 1.83D-02 at cycle   1 NSaved=   1.
 NSaved= 1 IEnMin= 1 EnMin= -480.484840809976     IErMin= 1 ErrMin= 1.83D-02
 ErrMax= 1.83D-02  0.00D+00 EMaxC= 1.00D-01 BMatC= 4.93D-01 BMatP= 4.93D-01
 IDIUse=3 WtCom= 8.17D-01 WtEn= 1.83D-01
 Coeff-Com:  0.100D+01
 Coeff-En:   0.100D+01
 Coeff:      0.100D+01
 Gap=     0.321 Goal=   None    Shift=    0.000
 GapD=    0.321 DampG=1.000 DampE=0.500 DampFc=0.5000 IDamp=-1.
 Damping current iteration by 5.00D-01
 RMSDP=1.05D-02 MaxDP=1.49D+00              OVMax= 2.21D-01

 Cycle   2  Pass 1  IDiag  1:
 RMSU=  5.20D-03    CP:  1.08D+00
 E= -480.655235986593     Delta-E=       -0.170395176617 Rises=F Damp=T
 DIIS: error= 5.40D-03 at cycle   2 NSaved=   2.
 NSaved= 2 IEnMin= 2 EnMin= -480.655235986593     IErMin= 2 ErrMin= 5.40D-03
 ErrMax= 5.40D-03  0.00D+00 EMaxC= 1.00D-01 BMatC= 3.51D-02 BMatP= 4.93D-01
 IDIUse=3 WtCom= 9.46D-01 WtEn= 5.40D-02
 Coeff-Com:  0.751D-02 0.992D+00
 Coeff-En:   0.320D-01 0.968D+00
 Coeff:      0.883D-02 0.991D+00
 Gap=     0.229 Goal=   None    Shift=    0.000
 RMSDP=4.64D-03 MaxDP=9.05D-01 DE=-1.70D-01 OVMax= 1.54D-01

 Cycle   3  Pass 1  IDiag  1:
 RMSU=  3.05D-03    CP:  9.19D-01  4.01D-01
 E= -480.848111929603     Delta-E=       -0.192875943010 Rises=F Damp=F
 DIIS: error= 3.94D-03 at cycle   3 NSaved=   3.
 NSaved= 3 IEnMin= 3 EnMin= -480.848111929603     IErMin= 3 ErrMin= 3.94D-03
 ErrMax= 3.94D-03  0.00D+00 EMaxC= 1.00D-01 BMatC= 1.18D-02 BMatP= 3.51D-02
 IDIUse=3 WtCom= 9.61D-01 WtEn= 3.94D-02
 Coeff-Com: -0.623D-01 0.345D+00 0.717D+00
 Coeff-En:   0.000D+00 0.000D+00 0.100D+01
 Coeff:     -0.598D-01 0.332D+00 0.728D+00
 Gap=     0.222 Goal=   None    Shift=    0.000
 RMSDP=4.48D-04 MaxDP=3.69D-02 DE=-1.93D-01 OVMax= 2.51D-02

 Cycle   4  Pass 1  IDiag  1:
 RMSU=  4.22D-04    CP:  9.24D-01  4.22D-01  1.03D+00
 E= -480.854966544919     Delta-E=       -0.006854615316 Rises=F Damp=F
 DIIS: error= 1.67D-03 at cycle   4 NSaved=   4.
 NSaved= 4 IEnMin= 4 EnMin= -480.854966544919     IErMin= 4 ErrMin= 1.67D-03
 ErrMax= 1.67D-03  0.00D+00 EMaxC= 1.00D-01 BMatC= 2.12D-03 BMatP= 1.18D-02
 IDIUse=3 WtCom= 9.83D-01 WtEn= 1.67D-02
 Coeff-Com: -0.279D-01 0.755D-01 0.348D+00 0.605D+00
 Coeff-En:   0.000D+00 0.000D+00 0.118D+00 0.882D+00
 Coeff:     -0.274D-01 0.742D-01 0.344D+00 0.609D+00
 Gap=     0.220 Goal=   None    Shift=    0.000
 RMSDP=2.03D-04 MaxDP=1.98D-02 DE=-6.85D-03 OVMax= 7.36D-03

 Cycle   5  Pass 1  IDiag  1:
 RMSU=  1.39D-04    CP:  9.17D-01  4.04D-01  1.04D+00  8.01D-01
 E= -480.856783759454     Delta-E=       -0.001817214535 Rises=F Damp=F
 DIIS: error= 2.81D-04 at cycle   5 NSaved=   5.
 NSaved= 5 IEnMin= 5 EnMin= -480.856783759454     IErMin= 5 ErrMin= 2.81D-04
 ErrMax= 2.81D-04  0.00D+00 EMaxC= 1.00D-01 BMatC= 7.92D-05 BMatP= 2.12D-03
 IDIUse=3 WtCom= 9.97D-01 WtEn= 2.81D-03
 Coeff-Com: -0.816D-02 0.142D-01 0.969D-01 0.241D+00 0.656D+00
 Coeff-En:   0.000D+00 0.000D+00 0.000D+00 0.000D+00 0.100D+01
 Coeff:     -0.813D-02 0.141D-01 0.966D-01 0.240D+00 0.657D+00
 Gap=     0.219 Goal=   None    Shift=    0.000
 RMSDP=5.99D-05 MaxDP=3.64D-03 DE=-1.82D-03 OVMax= 3.08D-03

 Cycle   6  Pass 1  IDiag  1:
 RMSU=  4.09D-05    CP:  9.17D-01  3.99D-01  1.04D+00  8.78D-01  9.26D-01
 E= -480.856840499549     Delta-E=       -0.000056740094 Rises=F Damp=F
 DIIS: error= 1.28D-04 at cycle   6 NSaved=   6.
 NSaved= 6 IEnMin= 6 EnMin= -480.856840499549     IErMin= 6 ErrMin= 1.28D-04
 ErrMax= 1.28D-04  0.00D+00 EMaxC= 1.00D-01 BMatC= 1.54D-05 BMatP= 7.92D-05
 IDIUse=3 WtCom= 9.99D-01 WtEn= 1.28D-03
 Coeff-Com: -0.138D-02 0.482D-04 0.153D-01 0.655D-01 0.347D+00 0.574D+00
 Coeff-En:   0.000D+00 0.000D+00 0.000D+00 0.000D+00 0.155D-01 0.984D+00
 Coeff:     -0.138D-02 0.481D-04 0.153D-01 0.654D-01 0.347D+00 0.574D+00
 Gap=     0.220 Goal=   None    Shift=    0.000
 RMSDP=2.73D-05 MaxDP=2.40D-03 DE=-5.67D-05 OVMax= 1.26D-03

 Cycle   7  Pass 1  IDiag  1:
 RMSU=  2.01D-05    CP:  9.17D-01  3.98D-01  1.05D+00  8.89D-01  1.02D+00
                    CP:  9.59D-01
 E= -480.856851971794     Delta-E=       -0.000011472246 Rises=F Damp=F
 DIIS: error= 4.22D-05 at cycle   7 NSaved=   7.
 NSaved= 7 IEnMin= 7 EnMin= -480.856851971794     IErMin= 7 ErrMin= 4.22D-05
 ErrMax= 4.22D-05  0.00D+00 EMaxC= 1.00D-01 BMatC= 1.50D-06 BMatP= 1.54D-05
 IDIUse=1 WtCom= 1.00D+00 WtEn= 0.00D+00
 Coeff-Com:  0.984D-03-0.279D-02-0.109D-01-0.147D-01 0.379D-01 0.252D+00
 Coeff-Com:  0.738D+00
 Coeff:      0.984D-03-0.279D-02-0.109D-01-0.147D-01 0.379D-01 0.252D+00
 Coeff:      0.738D+00
 Gap=     0.220 Goal=   None    Shift=    0.000
 RMSDP=1.17D-05 MaxDP=1.01D-03 DE=-1.15D-05 OVMax= 4.89D-04

 Cycle   8  Pass 1  IDiag  1:
 RMSU=  6.66D-06    CP:  9.17D-01  3.96D-01  1.05D+00  8.91D-01  1.07D+00
                    CP:  1.02D+00  1.06D+00
 E= -480.856853250782     Delta-E=       -0.000001278988 Rises=F Damp=F
 DIIS: error= 1.82D-05 at cycle   8 NSaved=   8.
 NSaved= 8 IEnMin= 8 EnMin= -480.856853250782     IErMin= 8 ErrMin= 1.82D-05
 ErrMax= 1.82D-05  0.00D+00 EMaxC= 1.00D-01 BMatC= 2.05D-07 BMatP= 1.50D-06
 IDIUse=1 WtCom= 1.00D+00 WtEn= 0.00D+00
 Coeff-Com:  0.532D-03-0.109D-02-0.579D-02-0.131D-01-0.223D-01 0.417D-01
 Coeff-Com:  0.338D+00 0.663D+00
 Coeff:      0.532D-03-0.109D-02-0.579D-02-0.131D-01-0.223D-01 0.417D-01
 Coeff:      0.338D+00 0.663D+00
 Gap=     0.220 Goal=   None    Shift=    0.000
 RMSDP=4.49D-06 MaxDP=4.79D-04 DE=-1.28D-06 OVMax= 1.49D-04

 Cycle   9  Pass 1  IDiag  1:
 RMSU=  2.29D-06    CP:  9.17D-01  3.96D-01  1.05D+00  8.91D-01  1.07D+00
                    CP:  1.02D+00  1.13D+00  1.15D+00
 E= -480.856853447982     Delta-E=       -0.000000197200 Rises=F Damp=F
 DIIS: error= 5.61D-06 at cycle   9 NSaved=   9.
 NSaved= 9 IEnMin= 9 EnMin= -480.856853447982     IErMin= 9 ErrMin= 5.61D-06
 ErrMax= 5.61D-06  0.00D+00 EMaxC= 1.00D-01 BMatC= 1.12D-08 BMatP= 2.05D-07
 IDIUse=1 WtCom= 1.00D+00 WtEn= 0.00D+00
 Coeff-Com:  0.107D-03-0.152D-03-0.124D-02-0.366D-02-0.100D-01-0.434D-02
 Coeff-Com:  0.676D-01 0.226D+00 0.726D+00
 Coeff:      0.107D-03-0.152D-03-0.124D-02-0.366D-02-0.100D-01-0.434D-02
 Coeff:      0.676D-01 0.226D+00 0.726D+00
 Gap=     0.220 Goal=   None    Shift=    0.000
 RMSDP=1.26D-06 MaxDP=1.52D-04 DE=-1.97D-07 OVMax= 3.60D-05

 Cycle  10  Pass 1  IDiag  1:
 RMSU=  5.86D-07    CP:  9.17D-01  3.96D-01  1.05D+00  8.91D-01  1.08D+00
                    CP:  1.01D+00  1.17D+00  1.22D+00  1.20D+00
 E= -480.856853458473     Delta-E=       -0.000000010491 Rises=F Damp=F
 DIIS: error= 1.86D-06 at cycle  10 NSaved=  10.
 NSaved=10 IEnMin=10 EnMin= -480.856853458473     IErMin=10 ErrMin= 1.86D-06
 ErrMax= 1.86D-06  0.00D+00 EMaxC= 1.00D-01 BMatC= 2.26D-09 BMatP= 1.12D-08
 IDIUse=1 WtCom= 1.00D+00 WtEn= 0.00D+00
 Coeff-Com: -0.346D-04 0.775D-04 0.294D-03 0.297D-03-0.870D-03-0.911D-02
 Coeff-Com: -0.209D-01-0.229D-02 0.313D+00 0.720D+00
 Coeff:     -0.346D-04 0.775D-04 0.294D-03 0.297D-03-0.870D-03-0.911D-02
 Coeff:     -0.209D-01-0.229D-02 0.313D+00 0.720D+00
 Gap=     0.220 Goal=   None    Shift=    0.000
 RMSDP=7.04D-07 MaxDP=9.29D-05 DE=-1.05D-08 OVMax= 1.43D-05

 Cycle  11  Pass 1  IDiag  1:
 RMSU=  1.82D-07    CP:  9.16D-01  3.96D-01  1.05D+00  8.90D-01  1.08D+00
                    CP:  1.01D+00  1.18D+00  1.27D+00  1.34D+00  1.28D+00
 E= -480.856853460609     Delta-E=       -0.000000002135 Rises=F Damp=F
 DIIS: error= 4.32D-07 at cycle  11 NSaved=  11.
 NSaved=11 IEnMin=11 EnMin= -480.856853460609     IErMin=11 ErrMin= 4.32D-07
 ErrMax= 4.32D-07  0.00D+00 EMaxC= 1.00D-01 BMatC= 1.71D-10 BMatP= 2.26D-09
 IDIUse=1 WtCom= 1.00D+00 WtEn= 0.00D+00
 Coeff-Com: -0.232D-04 0.478D-04 0.218D-03 0.428D-03 0.735D-03-0.294D-02
 Coeff-Com: -0.132D-01-0.226D-01 0.396D-01 0.263D+00 0.734D+00
 Coeff:     -0.232D-04 0.478D-04 0.218D-03 0.428D-03 0.735D-03-0.294D-02
 Coeff:     -0.132D-01-0.226D-01 0.396D-01 0.263D+00 0.734D+00
 Gap=     0.220 Goal=   None    Shift=    0.000
 RMSDP=2.05D-07 MaxDP=2.72D-05 DE=-2.14D-09 OVMax= 4.76D-06

 Cycle  12  Pass 1  IDiag  1:
 RMSU=  4.66D-08    CP:  9.16D-01  3.96D-01  1.05D+00  8.90D-01  1.08D+00
                    CP:  1.01D+00  1.18D+00  1.28D+00  1.37D+00  1.37D+00
                    CP:  1.14D+00
 E= -480.856853460773     Delta-E=       -0.000000000164 Rises=F Damp=F
 DIIS: error= 7.81D-08 at cycle  12 NSaved=  12.
 NSaved=12 IEnMin=12 EnMin= -480.856853460773     IErMin=12 ErrMin= 7.81D-08
 ErrMax= 7.81D-08  0.00D+00 EMaxC= 1.00D-01 BMatC= 8.12D-12 BMatP= 1.71D-10
 IDIUse=1 WtCom= 1.00D+00 WtEn= 0.00D+00
 Coeff-Com: -0.165D-05 0.372D-05 0.225D-04 0.528D-04 0.215D-03-0.106D-03
 Coeff-Com: -0.873D-03-0.407D-02-0.149D-01-0.948D-03 0.130D+00 0.890D+00
 Coeff:     -0.165D-05 0.372D-05 0.225D-04 0.528D-04 0.215D-03-0.106D-03
 Coeff:     -0.873D-03-0.407D-02-0.149D-01-0.948D-03 0.130D+00 0.890D+00
 Gap=     0.220 Goal=   None    Shift=    0.000
 RMSDP=5.70D-08 MaxDP=6.75D-06 DE=-1.64D-10 OVMax= 1.57D-06

 Cycle  13  Pass 1  IDiag  1:
 RMSU=  1.66D-08    CP:  9.16D-01  3.96D-01  1.05D+00  8.90D-01  1.08D+00
                    CP:  1.01D+00  1.18D+00  1.28D+00  1.38D+00  1.40D+00
                    CP:  1.21D+00  1.16D+00
 E= -480.856853460787     Delta-E=       -0.000000000014 Rises=F Damp=F
 DIIS: error= 3.60D-08 at cycle  13 NSaved=  13.
 NSaved=13 IEnMin=13 EnMin= -480.856853460787     IErMin=13 ErrMin= 3.60D-08
 ErrMax= 3.60D-08  0.00D+00 EMaxC= 1.00D-01 BMatC= 1.62D-12 BMatP= 8.12D-12
 IDIUse=1 WtCom= 1.00D+00 WtEn= 0.00D+00
 Coeff-Com:  0.182D-05-0.368D-05-0.123D-04-0.218D-04 0.177D-04 0.192D-03
 Coeff-Com:  0.972D-03 0.360D-03-0.967D-02-0.256D-01-0.279D-01 0.313D+00
 Coeff-Com:  0.748D+00
 Coeff:      0.182D-05-0.368D-05-0.123D-04-0.218D-04 0.177D-04 0.192D-03
 Coeff:      0.972D-03 0.360D-03-0.967D-02-0.256D-01-0.279D-01 0.313D+00
 Coeff:      0.748D+00
 Gap=     0.220 Goal=   None    Shift=    0.000
 RMSDP=1.49D-08 MaxDP=1.45D-06 DE=-1.36D-11 OVMax= 5.28D-07

 Cycle  14  Pass 1  IDiag  1:
 RMSU=  4.60D-09    CP:  9.16D-01  3.96D-01  1.05D+00  8.90D-01  1.08D+00
                    CP:  1.01D+00  1.18D+00  1.28D+00  1.39D+00  1.40D+00
                    CP:  1.24D+00  1.24D+00  1.09D+00
 E= -480.856853460788     Delta-E=       -0.000000000001 Rises=F Damp=F
 DIIS: error= 1.02D-08 at cycle  14 NSaved=  14.
 NSaved=14 IEnMin=14 EnMin= -480.856853460788     IErMin=14 ErrMin= 1.02D-08
 ErrMax= 1.02D-08  0.00D+00 EMaxC= 1.00D-01 BMatC= 1.30D-13 BMatP= 1.62D-12
 IDIUse=1 WtCom= 1.00D+00 WtEn= 0.00D+00
 Coeff-Com:  0.548D-06-0.112D-05-0.427D-05-0.923D-05-0.131D-04 0.372D-04
 Coeff-Com:  0.363D-03 0.437D-03-0.354D-03-0.547D-02-0.198D-01-0.231D-01
 Coeff-Com:  0.178D+00 0.870D+00
 Coeff:      0.548D-06-0.112D-05-0.427D-05-0.923D-05-0.131D-04 0.372D-04
 Coeff:      0.363D-03 0.437D-03-0.354D-03-0.547D-02-0.198D-01-0.231D-01
 Coeff:      0.178D+00 0.870D+00
 Gap=     0.220 Goal=   None    Shift=    0.000
 RMSDP=3.40D-09 MaxDP=3.05D-07 DE=-1.14D-12 OVMax= 1.80D-07

 SCF Done:  E(RM062X) =  -480.856853461     A.U. after   14 cycles
            NFock= 14  Conv=0.34D-08     -V/T= 2.0047
 KE= 4.786080769805D+02 PE=-2.317250248847D+03 EE= 7.598558058649D+02
 Leave Link  502 at Tue Jan  3 20:54:00 2023, MaxMem=  6710886400 cpu:            1500.9 elap:              62.8
 (Enter /data0/home/software/g16/l601.exe)
 Copying SCF densities to generalized density rwf, IOpCl= 0 IROHF=0.

 **********************************************************************

            Population analysis using the SCF density.

 **********************************************************************

 Alpha  occ. eigenvalues --  -19.50356 -19.49882 -14.91970 -10.64154 -10.64029
 Alpha  occ. eigenvalues --  -10.61885 -10.60724 -10.56420 -10.55542 -10.50313
 Alpha  occ. eigenvalues --   -1.16480  -1.09929  -1.00022  -0.90928  -0.88461
 Alpha  occ. eigenvalues --   -0.86721  -0.82052  -0.74736  -0.69111  -0.63796
 Alpha  occ. eigenvalues --   -0.63089  -0.61514  -0.55968  -0.54773  -0.53441
 Alpha  occ. eigenvalues --   -0.51542  -0.51374  -0.50490  -0.49205  -0.48999
 Alpha  occ. eigenvalues --   -0.47385  -0.46429  -0.43451  -0.43161  -0.42400
 Alpha  occ. eigenvalues --   -0.39438  -0.38246  -0.26017  -0.25377  -0.24619
 Alpha virt. eigenvalues --   -0.02634  -0.00333  -0.00192   0.01250   0.01780
 Alpha virt. eigenvalues --    0.03310   0.03680   0.03900   0.04501   0.05344
 Alpha virt. eigenvalues --    0.06561   0.07448   0.07589   0.08678   0.08895
 Alpha virt. eigenvalues --    0.09441   0.10529   0.11359   0.11680   0.11810
 Alpha virt. eigenvalues --    0.12684   0.13008   0.13211   0.13410   0.14173
 Alpha virt. eigenvalues --    0.14629   0.15417   0.15778   0.16510   0.16692
 Alpha virt. eigenvalues --    0.17235   0.17757   0.18050   0.18731   0.19347
 Alpha virt. eigenvalues --    0.20150   0.20690   0.21122   0.21180   0.22102
 Alpha virt. eigenvalues --    0.23089   0.23599   0.24334   0.24640   0.25987
 Alpha virt. eigenvalues --    0.26336   0.26510   0.26991   0.27548   0.28518
 Alpha virt. eigenvalues --    0.29035   0.30198   0.31295   0.31891   0.32401
 Alpha virt. eigenvalues --    0.33645   0.34276   0.35638   0.36297   0.37223
 Alpha virt. eigenvalues --    0.37740   0.38474   0.39098   0.39323   0.39645
 Alpha virt. eigenvalues --    0.41054   0.42730   0.43201   0.44035   0.45535
 Alpha virt. eigenvalues --    0.45835   0.47736   0.48189   0.50160   0.50864
 Alpha virt. eigenvalues --    0.51659   0.52146   0.53489   0.53827   0.54064
 Alpha virt. eigenvalues --    0.55503   0.57628   0.58205   0.59145   0.59478
 Alpha virt. eigenvalues --    0.60219   0.60911   0.61043   0.61638   0.62443
 Alpha virt. eigenvalues --    0.64094   0.65191   0.66179   0.66428   0.66847
 Alpha virt. eigenvalues --    0.67946   0.68410   0.69496   0.70687   0.71067
 Alpha virt. eigenvalues --    0.72588   0.73416   0.73749   0.74905   0.76001
 Alpha virt. eigenvalues --    0.77093   0.78127   0.78418   0.78604   0.79049
 Alpha virt. eigenvalues --    0.79993   0.82274   0.82812   0.85303   0.87204
 Alpha virt. eigenvalues --    0.87936   0.88922   0.89958   0.90891   0.93537
 Alpha virt. eigenvalues --    0.95140   0.96434   0.97402   0.98185   1.00637
 Alpha virt. eigenvalues --    1.01706   1.04144   1.07454   1.08205   1.11216
 Alpha virt. eigenvalues --    1.11912   1.12779   1.15025   1.15623   1.17532
 Alpha virt. eigenvalues --    1.18240   1.18999   1.19475   1.19786   1.21786
 Alpha virt. eigenvalues --    1.23226   1.23718   1.24879   1.26522   1.28353
 Alpha virt. eigenvalues --    1.28699   1.29178   1.31040   1.32656   1.34728
 Alpha virt. eigenvalues --    1.35378   1.36762   1.37042   1.39023   1.41303
 Alpha virt. eigenvalues --    1.42222   1.42855   1.44655   1.45205   1.46978
 Alpha virt. eigenvalues --    1.47783   1.49405   1.50515   1.52946   1.53674
 Alpha virt. eigenvalues --    1.57888   1.59687   1.60539   1.66734   1.68812
 Alpha virt. eigenvalues --    1.70017   1.71546   1.72221   1.75556   1.76367
 Alpha virt. eigenvalues --    1.77979   1.79123   1.82622   1.83619   1.84983
 Alpha virt. eigenvalues --    1.85394   1.85900   1.87357   1.88481   1.89977
 Alpha virt. eigenvalues --    1.90625   1.92752   1.92847   1.94456   1.94888
 Alpha virt. eigenvalues --    1.96397   1.96983   1.97780   2.00221   2.01980
 Alpha virt. eigenvalues --    2.03795   2.06437   2.10087   2.13346   2.16139
 Alpha virt. eigenvalues --    2.18286   2.20149   2.21012   2.21536   2.22538
 Alpha virt. eigenvalues --    2.25213   2.26041   2.26460   2.27278   2.29522
 Alpha virt. eigenvalues --    2.30936   2.32558   2.33344   2.35027   2.35538
 Alpha virt. eigenvalues --    2.36502   2.37454   2.37981   2.38700   2.39025
 Alpha virt. eigenvalues --    2.40993   2.41838   2.43882   2.46931   2.47536
 Alpha virt. eigenvalues --    2.48637   2.51740   2.53816   2.54535   2.56711
 Alpha virt. eigenvalues --    2.58588   2.62291   2.64158   2.65449   2.68309
 Alpha virt. eigenvalues --    2.69314   2.70674   2.72816   2.76935   2.77882
 Alpha virt. eigenvalues --    2.80855   2.82688   2.83476   2.85115   2.85813
 Alpha virt. eigenvalues --    2.88233   2.92007   2.93941   2.94854   2.98927
 Alpha virt. eigenvalues --    2.99728   3.02037   3.04455   3.05993   3.08351
 Alpha virt. eigenvalues --    3.10930   3.13457   3.17178   3.20131   3.22011
 Alpha virt. eigenvalues --    3.23731   3.25009   3.29758   3.32303   3.33392
 Alpha virt. eigenvalues --    3.33982   3.36347   3.37105   3.37619   3.38559
 Alpha virt. eigenvalues --    3.41482   3.42213   3.46636   3.50093   3.52664
 Alpha virt. eigenvalues --    3.54704   3.55786   3.56535   3.57794   3.60359
 Alpha virt. eigenvalues --    3.61041   3.62197   3.63091   3.64447   3.65137
 Alpha virt. eigenvalues --    3.66684   3.69635   3.71187   3.72159   3.73994
 Alpha virt. eigenvalues --    3.75726   3.77833   3.80442   3.81248   3.82788
 Alpha virt. eigenvalues --    3.85667   3.88574   3.92563   3.95755   4.00263
 Alpha virt. eigenvalues --    4.05879   4.11869   4.12825   4.14543   4.15082
 Alpha virt. eigenvalues --    4.16620   4.17525   4.20266   4.26253   4.29450
 Alpha virt. eigenvalues --    4.39940   4.42531   4.54333   4.67111   4.77208
 Alpha virt. eigenvalues --    4.79892   4.82964   5.10906   5.22155   5.23414
 Alpha virt. eigenvalues --    5.39630   5.40170   5.44854   5.46491   5.48685
 Alpha virt. eigenvalues --    5.50283   5.53792   6.03965   6.31491   6.91129
 Alpha virt. eigenvalues --    6.97452   7.00106   7.09944   7.15964   7.22806
 Alpha virt. eigenvalues --    7.28252   7.33095   7.40014   7.48772   9.55599
 Alpha virt. eigenvalues --    9.58810   9.67320   9.75122   9.95909  12.44430
 Alpha virt. eigenvalues --   12.95695  13.26032  17.14888  23.95035  23.99735
 Alpha virt. eigenvalues --   24.04251  24.08494  24.09308  24.10654  24.31650
 Alpha virt. eigenvalues --   35.50625  50.25031  50.27147 127.86291
          Condensed to atoms (all electrons):
               1          2          3          4          5          6
     1  C    5.591059   0.402077   0.394853   0.416837  -0.149948  -0.021719
     2  H    0.402077   0.462139  -0.020903  -0.016405  -0.015258   0.000283
     3  H    0.394853  -0.020903   0.457378  -0.017662  -0.019153   0.000290
     4  H    0.416837  -0.016405  -0.017662   0.405977   0.013573   0.000027
     5  C   -0.149948  -0.015258  -0.019153   0.013573   5.583845   0.389854
     6  H   -0.021719   0.000283   0.000290   0.000027   0.389854   0.457253
     7  H    0.023175   0.000054   0.000180  -0.000212   0.410097  -0.017756
     8  H   -0.013296   0.000306   0.001209   0.000081   0.408093  -0.020318
     9  C   -0.181066  -0.024032   0.029899  -0.020288  -0.188728  -0.019244
    10  H   -0.006737   0.000012  -0.000010   0.000322   0.013237   0.000196
    11  H    0.022891   0.000109  -0.000217   0.000351  -0.004549  -0.000117
    12  H   -0.015859  -0.001504   0.000104   0.000089  -0.024801  -0.000314
    13  C   -0.411107   0.040461  -0.019652  -0.018977  -0.305073   0.043974
    14  H   -0.007186   0.000087   0.000577   0.000105  -0.019930   0.000035
    15  H    0.012054   0.000030  -0.000127   0.000839   0.008720  -0.000236
    16  C    0.043470   0.001425  -0.006123  -0.003002  -0.019253   0.005310
    17  H    0.015154   0.000000   0.000028   0.000060  -0.014621  -0.000325
    18  H   -0.003479  -0.000004  -0.000000  -0.000023   0.000330  -0.000076
    19  C    0.007956  -0.000785   0.004425  -0.001257  -0.040827   0.000551
    20  H   -0.000159  -0.000001   0.000000   0.000003   0.000622  -0.000002
    21  H    0.002022   0.000000  -0.000014  -0.000025   0.000142  -0.000001
    22  N    0.290485  -0.028866  -0.005618  -0.018502   0.293716  -0.021873
    23  C   -0.014037   0.000691  -0.001618  -0.000108   0.014528   0.000525
    24  O   -0.004757  -0.000109   0.000008   0.000079  -0.008641  -0.000012
    25  O    0.005847   0.000033   0.000132  -0.000123   0.004884  -0.000017
    26  O    0.007802  -0.000394  -0.000574   0.005194   0.006328  -0.000038
    27  H    0.002228  -0.000005  -0.000063   0.000509   0.000593  -0.000001
    28  H   -0.002325  -0.000086   0.000024   0.000121  -0.002347   0.000008
               7          8          9         10         11         12
     1  C    0.023175  -0.013296  -0.181066  -0.006737   0.022891  -0.015859
     2  H    0.000054   0.000306  -0.024032   0.000012   0.000109  -0.001504
     3  H    0.000180   0.001209   0.029899  -0.000010  -0.000217   0.000104
     4  H   -0.000212   0.000081  -0.020288   0.000322   0.000351   0.000089
     5  C    0.410097   0.408093  -0.188728   0.013237  -0.004549  -0.024801
     6  H   -0.017756  -0.020318  -0.019244   0.000196  -0.000117  -0.000314
     7  H    0.443336  -0.018298  -0.016114   0.000311   0.000846   0.000581
     8  H   -0.018298   0.450495   0.024612  -0.000181  -0.000052   0.000253
     9  C   -0.016114   0.024612   5.905551   0.386128   0.422672   0.369147
    10  H    0.000311  -0.000181   0.386128   0.367235  -0.010764  -0.017107
    11  H    0.000846  -0.000052   0.422672  -0.010764   0.407669  -0.015784
    12  H    0.000581   0.000253   0.369147  -0.017107  -0.015784   0.463163
    13  C   -0.043549  -0.008422  -0.430570  -0.050243  -0.024378   0.049098
    14  H    0.000285  -0.001544   0.023378   0.000681   0.000012  -0.000150
    15  H    0.000127   0.000360  -0.016250  -0.002273  -0.000338   0.000074
    16  C    0.013297  -0.012207  -0.216568   0.014086  -0.019116   0.004708
    17  H    0.001153   0.000179  -0.010321   0.000355   0.000434  -0.000030
    18  H   -0.000258   0.000492   0.004310  -0.000214   0.000188  -0.000020
    19  C    0.004215  -0.000644   0.284946   0.002862   0.029389  -0.009718
    20  H    0.000014   0.000003  -0.000851   0.000056  -0.000045   0.000002
    21  H   -0.000011  -0.000002  -0.001289  -0.000054  -0.000113   0.000003
    22  N   -0.018303  -0.017954   0.311229   0.009998  -0.028406  -0.013271
    23  C   -0.000286  -0.000739  -0.187316   0.007079  -0.028068   0.009299
    24  O   -0.000147   0.000076  -0.059747  -0.010256   0.003278   0.004309
    25  O    0.000037  -0.000033   0.020023   0.006849   0.000169  -0.001060
    26  O   -0.000021  -0.000065   0.014736   0.002435   0.000452  -0.001205
    27  H   -0.000000  -0.000001  -0.000211   0.000215   0.000009  -0.000091
    28  H   -0.000000   0.000011  -0.014599  -0.001144  -0.000420   0.000647
              13         14         15         16         17         18
     1  C   -0.411107  -0.007186   0.012054   0.043470   0.015154  -0.003479
     2  H    0.040461   0.000087   0.000030   0.001425   0.000000  -0.000004
     3  H   -0.019652   0.000577  -0.000127  -0.006123   0.000028  -0.000000
     4  H   -0.018977   0.000105   0.000839  -0.003002   0.000060  -0.000023
[...]
    20  H    0.007457
    21  H   -0.021643
    22  N    0.034684
    23  C    0.415344
    24  O   -0.104698
    25  O    8.352434
 Mulliken charges:
               1
     1  C   -0.383121
     2  H    0.201247
     3  H    0.202760
     4  H    0.241538
     5  C   -0.334510
     6  H    0.204246
     7  H    0.216532
     8  H    0.207646
     9  C   -0.389865
    10  H    0.283377
    11  H    0.239488
    12  H    0.200093
    13  C   -0.275903
    14  H    0.196469
    15  H    0.274222
    16  C   -0.217193
    17  H    0.159052
    18  H    0.160343
    19  C   -0.360462
    20  H    0.165747
    21  H    0.172811
    22  N   -0.275042
    23  C    0.206486
    24  O   -0.542680
    25  O   -0.553281
    26  O    0.000000
    27  H    0.000000
    28  H    0.000000
 Sum of Mulliken charges =  -0.00000
 Mulliken charges with hydrogens summed into heavy atoms:
               1
     1  C    0.262423
     5  C    0.293914
     9  C    0.333093
    13  C    0.194788
    16  C    0.102202
    19  C   -0.021904
    22  N   -0.275042
    23  C    0.206486
    24  O   -0.542680
    25  O   -0.553281
    26  O    0.000000
         Mulliken charges condensed to fragments:
      1     -0.000000
      2      0.000000
 Electronic spatial extent (au):  <R**2>=         154628.9036
 Charge=             -0.0000 electrons
 Dipole moment (field-independent basis, Debye):
    X=             12.4312    Y=              1.5750    Z=             -6.1595  Tot=             13.9626
 Quadrupole moment (field-independent basis, Debye-Ang):
   XX=            268.5419   YY=             -4.9143   ZZ=           -122.8624
   XY=            242.2387   XZ=            -20.9034   YZ=           -106.5598
 Traceless Quadrupole moment (field-independent basis, Debye-Ang):
   XX=            221.6201   YY=            -51.8360   ZZ=           -169.7841
   XY=            242.2387   XZ=            -20.9034   YZ=           -106.5598
 Octapole moment (field-independent basis, Debye-Ang**2):
  XXX=           4163.6223  YYY=          -1875.7316  ZZZ=          -1273.6651  XYY=           3882.7354
  XXY=           5031.4265  XXZ=            250.8163  XZZ=          -1313.1398  YZZ=          -2237.5635
  YYZ=          -2108.7346  XYZ=           -326.0055
 Hexadecapole moment (field-independent basis, Debye-Ang**3):
 XXXX=          52282.0492 YYYY=         -89230.1285 ZZZZ=         -10760.6164 XXXY=          76765.2948
 XXXZ=           6947.7379 YYYX=          45706.5991 YYYZ=         -46542.7546 ZZZX=         -15038.0336
 ZZZY=         -23373.5198 XXYY=          83186.6141 XXZZ=         -14776.9872 YYZZ=         -42081.8167
 XXYZ=           5023.6922 YYXZ=          -8447.8324 ZZXY=         -23967.2177
 N-N= 5.979295125406D+02 E-N=-2.317252591750D+03  KE= 4.786123296324D+02
 No NMR shielding tensors so no spin-rotation constants.
 Leave Link  601 at Tue Jan  3 20:55:29 2023, MaxMem=  6710886400 cpu:               2.7 elap:               0.1
 (Enter /data0/home/software/g16/l122.exe)
 CPIOFr:  IOpCl= 0 IRwI=-1 IRwCP=  731 ICalc=  3 LCPTot=      247647 Len1MO=      645595 IndFrg=     2830027
 Counterpoise: doing calculation for fragment   2 using the basis set of the fragment.
 Leave Link  122 at Tue Jan  3 20:55:29 2023, MaxMem=  6710886400 cpu:               0.2 elap:               0.0
 (Enter /data0/home/software/g16/l301.exe)
 Basis read from rwf:  (5D, 7F)
 No pseudopotential information found on rwf file.
    39 basis functions,    58 primitive gaussians,    41 cartesian basis functions
     5 alpha electrons        5 beta electrons
       nuclear repulsion energy         8.9733425544 Hartrees.
 IExCor= 4336 DFT=T Ex+Corr=M062X ExCW=0 ScaHFX=  0.540000
 ScaDFX=  1.000000  1.000000  1.000000  1.000000 ScalE2=  1.000000  1.000000
 IRadAn=      5 IRanWt=     -1 IRanGd=            0 ICorTp=0 IEmpDi=131
 NAtoms=   28 NActive=    3 NUniq=    3 SFac= 1.00D+00 NAtFMM=   60 NAOKFM=F Big=F
 Integral buffers will be    131072 words long.
 Raffenetti 2 integral format.
 Two-electron integral symmetry is turned off.
 R6Disp:  Grimme-D3 Dispersion energy=       -0.0000000085 Hartrees.
 Nuclear repulsion after empirical dispersion term =        8.9733425459 Hartrees.
 No density basis found on file   718.
 Leave Link  301 at Tue Jan  3 20:55:29 2023, MaxMem=  6710886400 cpu:               1.3 elap:               0.1
 (Enter /data0/home/software/g16/l302.exe)
 NPDir=0 NMtPBC=     1 NCelOv=     1 NCel=       1 NClECP=     1 NCelD=      1
         NCelK=      1 NCelE2=     1 NClLst=     1 CellRange=     0.0.
 One-electron integrals computed using PRISM.
 NBasis=    39 RedAO= T EigKep=  3.16D-03  NBF=    39
 NBsUse=    39 1.00D-06 EigRej= -1.00D+00 NBFU=    39
 Precomputing XC quadrature grid using
 IXCGrd= 4 IRadAn=           5 IRanWt=          -1 IRanGd=           0 AccXCQ= 0.00D+00.
 Generated NRdTot=       0 NPtTot=           0 NUsed=           0 NTot=          32
 NSgBfM=    41    41    41    41    41 MxSgAt=     3 MxSgA2=     3.
 Leave Link  302 at Tue Jan  3 20:55:29 2023, MaxMem=  6710886400 cpu:               2.2 elap:               0.1
 (Enter /data0/home/software/g16/l303.exe)
 DipDrv:  MaxL=1.
 Leave Link  303 at Tue Jan  3 20:55:29 2023, MaxMem=  6710886400 cpu:               0.4 elap:               0.0
 (Enter /data0/home/software/g16/l401.exe)
 ExpMin= 8.45D-02 ExpMax= 8.59D+03 ExpMxC= 1.30D+03 IAcc=3 IRadAn=         5 AccDes= 0.00D+00
 Harris functional with IExCor= 1009 and IRadAn=       5 diagonalized for initial guess.
 HarFok:  IExCor= 1009 AccDes= 0.00D+00 IRadAn=         5 IDoV= 1 UseB2=F ITyADJ=14
 ICtDFT=  3500011 ScaDFX=  1.000000  1.000000  1.000000  1.000000
 FoFCou: FMM=F IPFlag=           0 FMFlag=      100000 FMFlg1=           0
         NFxFlg=           0 DoJE=T BraDBF=F KetDBF=T FulRan=T
         wScrn=  0.000000 ICntrl=       500 IOpCl=  0 I1Cent=   200000004 NGrid=           0
         NMat0=    1 NMatS0=      1 NMatT0=    0 NMatD0=    1 NMtDS0=    0 NMtDT0=    0
 Symmetry not used in FoFCou.
 Harris En= -76.4132153807104    
 JPrj=0 DoOrth=F DoCkMO=F.
 Leave Link  401 at Tue Jan  3 20:55:29 2023, MaxMem=  6710886400 cpu:               2.9 elap:               0.1
 (Enter /data0/home/software/g16/l502.exe)
 Keep R1 ints in memory in canonical form, NReq=21041397.
 FoFCou: FMM=F IPFlag=           0 FMFlag=           0 FMFlg1=           0
         NFxFlg=           0 DoJE=F BraDBF=F KetDBF=F FulRan=T
         wScrn=  0.000000 ICntrl=       600 IOpCl=  0 I1Cent=           0 NGrid=           0
         NMat0=    1 NMatS0=    780 NMatT0=    0 NMatD0=    1 NMtDS0=    0 NMtDT0=    0
 Symmetry not used in FoFCou.
 Two-electron integral symmetry not used.
 Closed shell SCF:
 Using DIIS extrapolation, IDIIS=  1040.
 NGot=  6710886400 LenX=  6710576219 LenY=  6710574097
 Requested convergence on RMS density matrix=1.00D-08 within 128 cycles.
 Requested convergence on MAX density matrix=1.00D-06.
 Requested convergence on             energy=1.00D-06.
 No special actions if energy rises.
 Integral accuracy reduced to 1.0D-05 until final iterations.

 Cycle   1  Pass 0  IDiag  1:
 E= -76.3440837048477    
 DIIS: error= 6.88D-02 at cycle   1 NSaved=   1.
 NSaved= 1 IEnMin= 1 EnMin= -76.3440837048477     IErMin= 1 ErrMin= 6.88D-02
 ErrMax= 6.88D-02  0.00D+00 EMaxC= 1.00D-01 BMatC= 1.19D-01 BMatP= 1.19D-01
 IDIUse=3 WtCom= 3.12D-01 WtEn= 6.88D-01
 Coeff-Com:  0.100D+01
 Coeff-En:   0.100D+01
 Coeff:      0.100D+01
 Gap=     0.320 Goal=   None    Shift=    0.000
 GapD=    0.320 DampG=1.000 DampE=0.500 DampFc=0.5000 IDamp=-1.
 Damping current iteration by 5.00D-01
 RMSDP=7.97D-03 MaxDP=9.94D-02              OVMax= 1.68D-01

 Cycle   2  Pass 0  IDiag  1:
 E= -76.3747046057481     Delta-E=       -0.030620900900 Rises=F Damp=T
 DIIS: error= 1.12D-02 at cycle   2 NSaved=   2.
 NSaved= 2 IEnMin= 2 EnMin= -76.3747046057481     IErMin= 2 ErrMin= 1.12D-02
 ErrMax= 1.12D-02  0.00D+00 EMaxC= 1.00D-01 BMatC= 5.08D-03 BMatP= 1.19D-01
 IDIUse=3 WtCom= 8.88D-01 WtEn= 1.12D-01
 Coeff-Com:  0.902D-01 0.910D+00
 Coeff-En:   0.200D+00 0.800D+00
 Coeff:      0.102D+00 0.898D+00
 Gap=     0.452 Goal=   None    Shift=    0.000
 RMSDP=9.82D-04 MaxDP=1.47D-02 DE=-3.06D-02 OVMax= 1.01D-01

 Cycle   3  Pass 0  IDiag  1:
 E= -76.4187693206159     Delta-E=       -0.044064714868 Rises=F Damp=F
 DIIS: error= 2.20D-03 at cycle   3 NSaved=   3.
 NSaved= 3 IEnMin= 3 EnMin= -76.4187693206159     IErMin= 3 ErrMin= 2.20D-03
 ErrMax= 2.20D-03  0.00D+00 EMaxC= 1.00D-01 BMatC= 9.36D-05 BMatP= 5.08D-03
 IDIUse=3 WtCom= 9.78D-01 WtEn= 2.20D-02
 Coeff-Com: -0.195D-01 0.410D-01 0.978D+00
 Coeff-En:   0.000D+00 0.000D+00 0.100D+01
 Coeff:     -0.190D-01 0.401D-01 0.979D+00
 Gap=     0.456 Goal=   None    Shift=    0.000
 RMSDP=1.18D-04 MaxDP=1.10D-03 DE=-4.41D-02 OVMax= 3.42D-03

 Cycle   4  Pass 0  IDiag  1:
 E= -76.4188502607502     Delta-E=       -0.000080940134 Rises=F Damp=F
 DIIS: error= 4.42D-04 at cycle   4 NSaved=   4.
 NSaved= 4 IEnMin= 4 EnMin= -76.4188502607502     IErMin= 4 ErrMin= 4.42D-04
 ErrMax= 4.42D-04  0.00D+00 EMaxC= 1.00D-01 BMatC= 3.73D-06 BMatP= 9.36D-05
 IDIUse=3 WtCom= 9.96D-01 WtEn= 4.42D-03
 Coeff-Com: -0.205D-02-0.247D-02 0.169D+00 0.836D+00
 Coeff-En:   0.000D+00 0.000D+00 0.000D+00 0.100D+01
 Coeff:     -0.205D-02-0.246D-02 0.168D+00 0.837D+00
 Gap=     0.457 Goal=   None    Shift=    0.000
 RMSDP=2.34D-05 MaxDP=3.67D-04 DE=-8.09D-05 OVMax= 5.73D-04

 Cycle   5  Pass 0  IDiag  1:
 E= -76.4188525936944     Delta-E=       -0.000002332944 Rises=F Damp=F
 DIIS: error= 9.79D-05 at cycle   5 NSaved=   5.
 NSaved= 5 IEnMin= 5 EnMin= -76.4188525936944     IErMin= 5 ErrMin= 9.79D-05
 ErrMax= 9.79D-05  0.00D+00 EMaxC= 1.00D-01 BMatC= 9.85D-08 BMatP= 3.73D-06
 IDIUse=1 WtCom= 1.00D+00 WtEn= 0.00D+00
 Coeff-Com:  0.123D-02-0.189D-02-0.385D-01-0.741D-01 0.111D+01
 Coeff:      0.123D-02-0.189D-02-0.385D-01-0.741D-01 0.111D+01
 Gap=     0.457 Goal=   None    Shift=    0.000
 RMSDP=9.74D-06 MaxDP=1.08D-04 DE=-2.33D-06 OVMax= 2.26D-04

 Initial convergence to 1.0D-05 achieved.  Increase integral accuracy.
 Cycle   6  Pass 1  IDiag  1:
 E= -76.4188465688651     Delta-E=        0.000006024829 Rises=F Damp=F
 DIIS: error= 3.90D-05 at cycle   1 NSaved=   1.
 NSaved= 1 IEnMin= 1 EnMin= -76.4188465688651     IErMin= 1 ErrMin= 3.90D-05
 ErrMax= 3.90D-05  0.00D+00 EMaxC= 1.00D-01 BMatC= 2.70D-08 BMatP= 2.70D-08
 IDIUse=1 WtCom= 1.00D+00 WtEn= 0.00D+00
 Coeff-Com:  0.100D+01
 Coeff:      0.100D+01
 Gap=     0.457 Goal=   None    Shift=    0.000
 RMSDP=9.74D-06 MaxDP=1.08D-04 DE= 6.02D-06 OVMax= 5.75D-05

 Cycle   7  Pass 1  IDiag  1:
 E= -76.4188465921386     Delta-E=       -0.000000023273 Rises=F Damp=F
 DIIS: error= 1.63D-05 at cycle   2 NSaved=   2.
 NSaved= 2 IEnMin= 2 EnMin= -76.4188465921386     IErMin= 2 ErrMin= 1.63D-05
 ErrMax= 1.63D-05  0.00D+00 EMaxC= 1.00D-01 BMatC= 3.72D-09 BMatP= 2.70D-08
 IDIUse=1 WtCom= 1.00D+00 WtEn= 0.00D+00
 Coeff-Com:  0.125D+00 0.875D+00
 Coeff:      0.125D+00 0.875D+00
 Gap=     0.457 Goal=   None    Shift=    0.000
 RMSDP=1.27D-06 MaxDP=1.81D-05 DE=-2.33D-08 OVMax= 3.33D-05

 Cycle   8  Pass 1  IDiag  1:
 E= -76.4188465931168     Delta-E=       -0.000000000978 Rises=F Damp=F
 DIIS: error= 1.04D-05 at cycle   3 NSaved=   3.
 NSaved= 3 IEnMin= 3 EnMin= -76.4188465931168     IErMin= 3 ErrMin= 1.04D-05
 ErrMax= 1.04D-05  0.00D+00 EMaxC= 1.00D-01 BMatC= 2.95D-09 BMatP= 3.72D-09
 IDIUse=1 WtCom= 1.00D+00 WtEn= 0.00D+00
 Coeff-Com: -0.561D-01 0.482D+00 0.574D+00
 Coeff:     -0.561D-01 0.482D+00 0.574D+00
 Gap=     0.457 Goal=   None    Shift=    0.000
 RMSDP=5.98D-07 MaxDP=8.36D-06 DE=-9.78D-10 OVMax= 1.38D-05

 Cycle   9  Pass 1  IDiag  1:
 E= -76.4188465950745     Delta-E=       -0.000000001958 Rises=F Damp=F
 DIIS: error= 7.46D-07 at cycle   4 NSaved=   4.
 NSaved= 4 IEnMin= 4 EnMin= -76.4188465950745     IErMin= 4 ErrMin= 7.46D-07
 ErrMax= 7.46D-07  0.00D+00 EMaxC= 1.00D-01 BMatC= 8.57D-12 BMatP= 2.95D-09
 IDIUse=1 WtCom= 1.00D+00 WtEn= 0.00D+00
 Coeff-Com: -0.653D-02 0.150D-01 0.323D-01 0.959D+00
 Coeff:     -0.653D-02 0.150D-01 0.323D-01 0.959D+00
 Gap=     0.457 Goal=   None    Shift=    0.000
 RMSDP=9.94D-08 MaxDP=8.07D-07 DE=-1.96D-09 OVMax= 2.27D-06

 Cycle  10  Pass 1  IDiag  1:
 E= -76.4188465950897     Delta-E=       -0.000000000015 Rises=F Damp=F
 DIIS: error= 1.41D-07 at cycle   5 NSaved=   5.
 NSaved= 5 IEnMin= 5 EnMin= -76.4188465950897     IErMin= 5 ErrMin= 1.41D-07
 ErrMax= 1.41D-07  0.00D+00 EMaxC= 1.00D-01 BMatC= 7.92D-13 BMatP= 8.57D-12
 IDIUse=1 WtCom= 1.00D+00 WtEn= 0.00D+00
 Coeff-Com:  0.415D-02-0.416D-01-0.473D-01 0.744D-01 0.101D+01
 Coeff:      0.415D-02-0.416D-01-0.473D-01 0.744D-01 0.101D+01
 Gap=     0.457 Goal=   None    Shift=    0.000
 RMSDP=4.07D-08 MaxDP=3.98D-07 DE=-1.52D-11 OVMax= 8.57D-07

 Cycle  11  Pass 1  IDiag  1:
 E= -76.4188465950910     Delta-E=       -0.000000000001 Rises=F Damp=F
 DIIS: error= 2.30D-08 at cycle   6 NSaved=   6.
 NSaved= 6 IEnMin= 6 EnMin= -76.4188465950910     IErMin= 6 ErrMin= 2.30D-08
 ErrMax= 2.30D-08  0.00D+00 EMaxC= 1.00D-01 BMatC= 1.14D-14 BMatP= 7.92D-13
 IDIUse=1 WtCom= 1.00D+00 WtEn= 0.00D+00
 Coeff-Com: -0.232D-03 0.301D-02 0.456D-02-0.226D-01-0.107D+00 0.112D+01
 Coeff:     -0.232D-03 0.301D-02 0.456D-02-0.226D-01-0.107D+00 0.112D+01
 Gap=     0.457 Goal=   None    Shift=    0.000
 RMSDP=5.93D-09 MaxDP=7.09D-08 DE=-1.32D-12 OVMax= 1.31D-07

 SCF Done:  E(RM062X) =  -76.4188465951     A.U. after   11 cycles
            NFock= 11  Conv=0.59D-08     -V/T= 2.0035
 KE= 7.615041921560D+01 PE=-1.987765736656D+02 EE= 3.723396530901D+01
 Leave Link  502 at Tue Jan  3 20:55:29 2023, MaxMem=  6710886400 cpu:               8.8 elap:               0.4
 (Enter /data0/home/software/g16/l601.exe)
 Copying SCF densities to generalized density rwf, IOpCl= 0 IROHF=0.

 **********************************************************************

            Population analysis using the SCF density.

 **********************************************************************

 Alpha  occ. eigenvalues --  -19.62844  -1.12816  -0.59982  -0.47430  -0.39881
 Alpha virt. eigenvalues --    0.05834   0.13087   0.17453   0.17961   0.18948
 Alpha virt. eigenvalues --    0.23460   0.48364   0.54129   0.97946   1.00946
 Alpha virt. eigenvalues --    1.05948   1.17995   1.19686   1.32009   1.34628
 Alpha virt. eigenvalues --    1.68853   1.72678   1.75473   2.04229   2.10530
 Alpha virt. eigenvalues --    2.35344   2.38968   2.54221   2.84833   3.01125
 Alpha virt. eigenvalues --    5.05584   5.45064   5.87466   6.78387   6.80160
 Alpha virt. eigenvalues --    6.87416   6.91085   7.10503  49.94759
          Condensed to atoms (all electrons):
              26         27         28
    26  O    7.930457   0.320148   0.308184
    27  H    0.320148   0.428769  -0.023045
    28  H    0.308184  -0.023045   0.430201
 Mulliken charges:
               1
     1  C    0.000000
     2  H    0.000000
     3  H    0.000000
     4  H    0.000000
     5  C    0.000000
     6  H    0.000000
     7  H    0.000000
     8  H    0.000000
     9  C    0.000000
    10  H    0.000000
    11  H    0.000000
    12  H    0.000000
    13  C    0.000000
    14  H    0.000000
    15  H    0.000000
    16  C    0.000000
    17  H    0.000000
    18  H    0.000000
    19  C    0.000000
    20  H    0.000000
    21  H    0.000000
    22  N    0.000000
    23  C    0.000000
    24  O    0.000000
    25  O    0.000000
    26  O   -0.558789
    27  H    0.274128
    28  H    0.284660
 Sum of Mulliken charges =  -0.00000
 Mulliken charges with hydrogens summed into heavy atoms:
               1
     1  C    0.000000
     5  C    0.000000
     9  C    0.000000
    13  C    0.000000
    16  C    0.000000
    19  C    0.000000
    22  N    0.000000
    23  C    0.000000
    24  O    0.000000
    25  O    0.000000
    26  O   -0.000000
         Mulliken charges condensed to fragments:
      1      0.000000
      2     -0.000000
 Electronic spatial extent (au):  <R**2>=          20423.3272
 Charge=             -0.0000 electrons
 Dipole moment (field-independent basis, Debye):
    X=             -1.8686    Y=             -0.0260    Z=              1.0444  Tot=              2.1408
 Quadrupole moment (field-independent basis, Debye-Ang):
   XX=            -57.7056   YY=             -8.4715   ZZ=             10.0956
   XY=            -34.4562   XZ=              1.6642   YZ=             17.8702
 Traceless Quadrupole moment (field-independent basis, Debye-Ang):
   XX=            -39.0118   YY=             10.2223   ZZ=             28.7894
   XY=            -34.4562   XZ=              1.6642   YZ=             17.8702
 Octapole moment (field-independent basis, Debye-Ang**2):
  XXX=          -1325.0160  YYY=           -432.3374  ZZZ=             55.6478  XYY=           -740.0405
  XXY=          -1056.3072  XXZ=           -197.9943  XZZ=             51.7414  YZZ=            169.2513
  YYZ=            250.1096  XYZ=             13.8117
 Hexadecapole moment (field-independent basis, Debye-Ang**3):
 XXXX=         -26855.0309 YYYY=         -15274.7414 ZZZZ=             15.7380 XXXY=         -24178.0512
 XXXZ=          -6428.3402 YYYX=         -17370.8251 YYYZ=           2225.9720 ZZZX=            161.3953
 ZZZY=            866.8280 XXYY=         -20797.1921 XXZZ=           -827.5779 YYZZ=           2420.7788
 XXYZ=          -3831.5312 YYXZ=           -806.1692 ZZXY=            735.5388
 N-N= 8.973342545874D+00 E-N=-1.987765740988D+02  KE= 7.615041921560D+01
 No NMR shielding tensors so no spin-rotation constants.
 Leave Link  601 at Tue Jan  3 20:55:29 2023, MaxMem=  6710886400 cpu:               1.8 elap:               0.1
 (Enter /data0/home/software/g16/l122.exe)
 CPIOFr:  IOpCl= 0 IRwI=-1 IRwCP=  731 ICalc=  4 LCPTot=      247647 Len1MO=      645595 IndFrg=     3475622
 Restoring MOs from calculation   1 to rwf.
 CPIOFr:  IOpCl= 0 IRwI=-2 IRwCP=  731 ICalc=  0 LCPTot=      247647 Len1MO=      645595 IndFrg=      893242
 Counterpoise corrected energy =    -557.309400410368
                   BSSE energy =       0.001511567401
              sum of fragments =    -557.275378970256
           complexation energy =     -22.30 kcal/mole (raw)
           complexation energy =     -21.35 kcal/mole (corrected)
 Leave Link  122 at Tue Jan  3 20:55:29 2023, MaxMem=  6710886400 cpu:               0.3 elap:               0.0
 (Enter /data0/home/software/g16/l9999.exe)
 1\1\GINC-LOCALHOST\SP\RM062X\6-311+G(2d,p)\C7H17N1O3\WUHANYU\03-Jan-20
 23\0\\#p M062X/6-311+G(2d,p) nosymm em=GD3 counterpoise=2\\Title Card 
 Required\\0,1\C,0,15.964533,18.262602,4.981543\H,0,16.650548,17.409911
 ,4.878323\H,0,16.536302,19.196266,4.895099\H,0,15.550626,18.218506,6.0
 25366\C,0,15.429428,18.214494,2.594916\H,0,16.093294,17.34957,2.431714
 \H,0,14.630908,18.171607,1.831613\H,0,16.011807,19.132966,2.41841\C,0,
 14.098144,16.91404,4.1801\H,0,13.569108,16.901218,5.167008\H,0,13.2899
 3,16.778748,3.434477\H,0,14.765958,16.044734,4.149116\C,0,13.961349,19
 .420902,4.176125\H,0,14.575867,20.328117,4.008585\H,0,13.659886,19.452
 544,5.26214\C,0,12.708883,19.444449,3.286875\H,0,12.619979,18.528815,2
 .666457\H,0,12.766176,20.287445,2.573535\C,0,11.441013,19.562698,4.134
 36\H,0,10.534219,19.530249,3.5101\H,0,11.405439,20.502829,4.705024\N,0
 ,14.845544,18.197749,3.979437\C,0,11.412152,18.350931,5.1084\O,0,11.24
 8322,17.240429,4.607371\O,0,11.656432,18.624099,6.304112\O,0,13.996212
 ,18.007412,7.252284\H,0,13.860755,17.798073,8.164945\H,0,13.057209,18.
 208625,6.912567\\Version=ES64L-G16RevA.03\HF=-76.4188466\RMSD=5.927e-0
 9\Dipole=3.7103976,0.637178,-2.0973044\Quadrupole=120.7993563,-21.0727
 281,-99.7266282,139.9846108,-20.964845,-68.5580417\PG=C01 [X(C7H17N1O3
 )]\\@


 FRICTION IS A DRAG,
 AND ENTROPY AIN'T WHAT IT USED TO BE.
 Job cpu time:       0 days  1 hours 25 minutes 49.4 seconds.
 Elapsed time:       0 days  0 hours  3 minutes 36.0 seconds.
 File lengths (MBytes):  RWF=    124 Int=      0 D2E=      0 Chk=     36 Scr=      1
 Normal termination of Gaussian 16 at Tue Jan  3 20:55:30 2023.
