 Entering Gaussian System, Link 0=g16
 Initial command:
 /data0/hywu0/study/g16/l1.exe "/data0/hywu0/study/g16/scratch/Gau-3692411.inp" -scrdir="/data0/hywu0/study/g16/scratch/"
 Default is to use a total of   8 processors:
                                8 via shared-memory
                                1 via Linda
 Entering Link 1 = /data0/hywu0/study/g16/l1.exe PID=   3692412.
  
 Copyright (c) 1988,1990,1992,1993,1995,1998,2003,2009,2016,
            Gaussian, Inc.  All Rights Reserved.
  
 This is part of the Gaussian(R) 16 program.  It is based on
 the Gaussian(R) 09 system (copyright 2009, Gaussian, Inc.),
 the Gaussian(R) 03 system (copyright 2003, Gaussian, Inc.),
 the Gaussian(R) 98 system (copyright 1998, Gaussian, Inc.),
 the Gaussian(R) 94 system (copyright 1995, Gaussian, Inc.),
 the Gaussian 92(TM) system (copyright 1992, Gaussian, Inc.),
 the Gaussian 90(TM) system (copyright 1990, Gaussian, Inc.),
 the Gaussian 88(TM) system (copyright 1988, Gaussian, Inc.),
 the Gaussian 86(TM) system (copyright 1986, Carnegie Mellon
 University), and the Gaussian 82(TM) system (copyright 1983,
 Carnegie Mellon University). Gaussian is a federally registered
 trademark of Gaussian, Inc.
  
 This software contains proprietary and confidential information,
 including trade secrets, belonging to Gaussian, Inc.
  
 This software is provided under written license and may be
 used, copied, transmitted, or stored only in accord with that
 written license.
  
 The following legend is applicable only to US Government
 contracts under FAR:
  
                    RESTRICTED RIGHTS LEGEND
  
 Use, reproduction and disclosure by the US Government is
 subject to restrictions as set forth in subparagraphs (a)
 and (c) of the Commercial Computer Software - Restricted
 Rights clause in FAR 52.227-19.
  
 Gaussian, Inc.
 340 Quinnipiac St., Bldg. 40, Wallingford CT 06492
  
  
 ---------------------------------------------------------------
 Warning -- This program may not be used in any manner that
 competes with the business of Gaussian, Inc. or will provide
 assistance to any competitor of Gaussian, Inc.  The licensee
 of this program is prohibited from giving any competitor of
 Gaussian, Inc. access to this program.  By using this program,
 the user acknowledges that Gaussian, Inc. is engaged in the
 business of creating and licensing software in the field of
 computational chemistry and represents and warrants to the
 licensee that it is not a competitor of Gaussian, Inc. and that
 it will not use this program in any manner prohibited above.
 ---------------------------------------------------------------
  

 Cite this work as:
 Gaussian 16, Revision A.03,
 M. J. Frisch, G. W. Trucks, H. B. Schlegel, G. E. Scuseria, 
 M. A. Robb, J. R. Cheeseman, G. Scalmani, V. Barone, 
 G. A. Petersson, H. Nakatsuji, X. Li, M. Caricato, A. V. Marenich, 
 J. Bloino, B. G. Janesko, R. Gomperts, B. Mennucci, H. P. Hratchian, 
 J. V. Ortiz, A. F. Izmaylov, J. L. Sonnenberg, D. Williams-Young, 
 F. Ding, F. Lipparini, F. Egidi, J. Goings, B. Peng, A. Petrone, 
 T. Henderson, D. Ranasinghe, V. G. Zakrzewski, J. Gao, N. Rega, 
 G. Zheng, W. Liang, M. Hada, M. Ehara, K. Toyota, R. Fukuda, 
 J. Hasegawa, M. Ishida, T. Nakajima, Y. Honda, O. Kitao, H. Nakai, 
 T. Vreven, K. Throssell, J. A. Montgomery, Jr., J. E. Peralta, 
 F. Ogliaro, M. J. Bearpark, J. J. Heyd, E. N. Brothers, K. N. Kudin, 
 V. N. Staroverov, T. A. Keith, R. Kobayashi, J. Normand, 
 K. Raghavachari, A. P. Rendell, J. C. Burant, S. S. Iyengar, 
 J. Tomasi, M. Cossi, J. M. Millam, M. Klene, C. Adamo, R. Cammi, 
 J. W. Ochterski, R. L. Martin, K. Morokuma, O. Farkas, 
 J. B. Foresman, and D. J. Fox, Gaussian, Inc., Wallingford CT, 2016.
 
 ******************************************
 Gaussian 16:  ES64L-G16RevA.03 25-Dec-2016
                19-May-2022 
 ******************************************
 %nproc=8
 Will use up to    8 processors via shared memory.
 %mem=5GB
 ---------------------------------------------------
 #p M062X/6-311+G(2d,p) nosymm em=GD3 counterpoise=3
 ---------------------------------------------------
 1/38=1,62=3,172=1/1;
 2/12=2,15=1,17=6,18=5,40=1/2;
 1/38=1,53=2,62=3,63=1/22;
 3/5=4,6=6,7=112,11=2,25=1,30=1,74=-55,124=31/1,2,3;
 4//1;
 5/5=2,38=5/2;
 6/7=2,8=2,9=2,10=2,28=1/1;
 1/53=2,62=3,63=1/22;
 3/5=7,6=11,7=112,11=2,25=1,30=1,74=-55,82=7,124=31/1,2,3;
 4//1;
 5/5=2,38=5/2;
 6/7=2,8=2,9=2,10=2,28=1/1;
 1/53=2,62=3,63=1/22(-4);
 99/5=1,9=1/99;
 Leave Link    1 at Thu May 19 13:14:16 2022, MaxMem=   671088640 cpu:               0.3 elap:               0.0
 (Enter /data0/hywu0/study/g16/l101.exe)
 -------------------
 Title Card Required
 -------------------
 Symbolic Z-matrix:
 Charge =  0 Multiplicity = 1 in supermolecule
 Charge =  0 Multiplicity = 1 in fragment      1.
 Charge =  0 Multiplicity = 1 in fragment      2.
 Charge =  0 Multiplicity = 1 in fragment      3.
 C                     16.96729   6.21615   4.12488    
 H                     17.39439   5.53484   3.37216    
 H                     16.05592   5.76856   4.54311    
 H                     16.66432   7.1384    3.56577    
 C                     18.21797   5.31821   6.0218     
 H                     18.63953   4.50875   5.40207    
 H                     18.93999   5.52979   6.83308    
 H                     17.29044   4.94886   6.48744    
 C                     19.25831   6.99454   4.57106    
 H                     19.33495   8.10795   4.54002    
 H                     20.14266   6.65034   5.13196    
 H                     19.3452   6.66788   3.52059    
 C                     17.35841   7.6375    6.07351    
 H                     16.41591   7.25599   6.51702    
 H                     17.05274   8.47891   5.39078    
 C                     18.30212   8.14462   7.17036    
 H                     19.36749   7.92039   6.93498    
 H                     18.10199   7.62701   8.12665    
 C                     18.16401   9.65619   7.36625    
 H                     18.94581   10.03244   8.05089    
 H                     17.19224   9.91818   7.82126    
 N                     17.96685   6.54984   5.19894    
 C                     18.30579   10.37411   6.01368    
 O                     17.28613   10.89414   5.54381    
 O                     19.42776   10.32748   5.45557    
 P                     18.00849   9.93726   2.28717    
 O                     17.85377   8.50126   2.56293    
 O                     19.39456   10.56289   2.73596    
 H                     19.43889   10.55215   3.80387    
 O                     17.96533   10.19414   0.71449    
 H                     18.08433   11.21166   0.57191    
 O                     16.87005   10.87841   2.85607    
 H                     17.01282   10.97247   3.91294    
 O                     21.30685   8.53035   6.11265    
 H                     20.63508   9.23259   5.90029    
 H                     22.14163   8.97577   6.04411    
 
 ITRead=  0  0  0  0  0  0  0  0  0  0  0  0  0  0  0  0  0  0  0  0
 ITRead=  0  0  0  0  0  0  0  0  0  0  0  0  0  0  0  0
 MicOpt= -1 -1 -1 -1 -1 -1 -1 -1 -1 -1 -1 -1 -1 -1 -1 -1 -1 -1 -1 -1
 MicOpt= -1 -1 -1 -1 -1 -1 -1 -1 -1 -1 -1 -1 -1 -1 -1 -1
 NAtoms=     36 NQM=       36 NQMF=       0 NMMI=      0 NMMIF=      0
                NMic=       0 NMicF=      0.
                    Isotopes and Nuclear Properties:
 (Nuclear quadrupole moments (NQMom) in fm**2, nuclear magnetic moments (NMagM)
  in nuclear magnetons)

  Atom         1           2           3           4           5           6           7           8           9          10
 IAtWgt=          12           1           1           1          12           1           1           1          12           1
 AtmWgt=  12.0000000   1.0078250   1.0078250   1.0078250  12.0000000   1.0078250   1.0078250   1.0078250  12.0000000   1.0078250
 NucSpn=           0           1           1           1           0           1           1           1           0           1
 AtZEff=  -0.0000000  -0.0000000  -0.0000000  -0.0000000  -0.0000000  -0.0000000  -0.0000000  -0.0000000  -0.0000000  -0.0000000
 NQMom=    0.0000000   0.0000000   0.0000000   0.0000000   0.0000000   0.0000000   0.0000000   0.0000000   0.0000000   0.0000000
 NMagM=    0.0000000   2.7928460   2.7928460   2.7928460   0.0000000   2.7928460   2.7928460   2.7928460   0.0000000   2.7928460
 AtZNuc=   6.0000000   1.0000000   1.0000000   1.0000000   6.0000000   1.0000000   1.0000000   1.0000000   6.0000000   1.0000000

  Atom        11          12          13          14          15          16          17          18          19          20
 IAtWgt=           1           1          12           1           1          12           1           1          12           1
 AtmWgt=   1.0078250   1.0078250  12.0000000   1.0078250   1.0078250  12.0000000   1.0078250   1.0078250  12.0000000   1.0078250
 NucSpn=           1           1           0           1           1           0           1           1           0           1
 AtZEff=  -0.0000000  -0.0000000  -0.0000000  -0.0000000  -0.0000000  -0.0000000  -0.0000000  -0.0000000  -0.0000000  -0.0000000
 NQMom=    0.0000000   0.0000000   0.0000000   0.0000000   0.0000000   0.0000000   0.0000000   0.0000000   0.0000000   0.0000000
 NMagM=    2.7928460   2.7928460   0.0000000   2.7928460   2.7928460   0.0000000   2.7928460   2.7928460   0.0000000   2.7928460
 AtZNuc=   1.0000000   1.0000000   6.0000000   1.0000000   1.0000000   6.0000000   1.0000000   1.0000000   6.0000000   1.0000000

  Atom        21          22          23          24          25          26          27          28          29          30
 IAtWgt=           1          14          12          16          16          31          16          16           1          16
 AtmWgt=   1.0078250  14.0030740  12.0000000  15.9949146  15.9949146  30.9737634  15.9949146  15.9949146   1.0078250  15.9949146
 NucSpn=           1           2           0           0           0           1           0           0           1           0
 AtZEff=  -0.0000000  -0.0000000  -0.0000000  -0.0000000  -0.0000000  -0.0000000  -0.0000000  -0.0000000  -0.0000000  -0.0000000
 NQMom=    0.0000000   2.0440000   0.0000000   0.0000000   0.0000000   0.0000000   0.0000000   0.0000000   0.0000000   0.0000000
 NMagM=    2.7928460   0.4037610   0.0000000   0.0000000   0.0000000   1.1316000   0.0000000   0.0000000   2.7928460   0.0000000
 AtZNuc=   1.0000000   7.0000000   6.0000000   8.0000000   8.0000000  15.0000000   8.0000000   8.0000000   1.0000000   8.0000000

  Atom        31          32          33          34          35          36
 IAtWgt=           1          16           1          16           1           1
 AtmWgt=   1.0078250  15.9949146   1.0078250  15.9949146   1.0078250   1.0078250
 NucSpn=           1           0           1           0           1           1
 AtZEff=  -0.0000000  -0.0000000  -0.0000000  -0.0000000  -0.0000000  -0.0000000
 NQMom=    0.0000000   0.0000000   0.0000000   0.0000000   0.0000000   0.0000000
 NMagM=    2.7928460   0.0000000   2.7928460   0.0000000   2.7928460   2.7928460
 AtZNuc=   1.0000000   8.0000000   1.0000000   8.0000000   1.0000000   1.0000000
 Leave Link  101 at Thu May 19 13:14:16 2022, MaxMem=   671088640 cpu:               1.5 elap:               0.2
 (Enter /data0/hywu0/study/g16/l202.exe)
                          Input orientation:                          
 ---------------------------------------------------------------------
 Center     Atomic      Atomic             Coordinates (Angstroms)
 Number     Number       Type             X           Y           Z
 ---------------------------------------------------------------------
      1          6           0       16.967287    6.216146    4.124881
      2          1           0       17.394386    5.534842    3.372155
      3          1           0       16.055919    5.768556    4.543110
      4          1           0       16.664324    7.138400    3.565767
      5          6           0       18.217966    5.318208    6.021801
      6          1           0       18.639532    4.508746    5.402068
      7          1           0       18.939994    5.529787    6.833079
      8          1           0       17.290437    4.948861    6.487439
      9          6           0       19.258313    6.994536    4.571056
     10          1           0       19.334945    8.107945    4.540024
     11          1           0       20.142658    6.650343    5.131957
     12          1           0       19.345200    6.667880    3.520586
     13          6           0       17.358414    7.637505    6.073509
     14          1           0       16.415911    7.255994    6.517020
     15          1           0       17.052737    8.478905    5.390778
     16          6           0       18.302116    8.144619    7.170363
     17          1           0       19.367490    7.920393    6.934984
     18          1           0       18.101994    7.627006    8.126652
     19          6           0       18.164007    9.656194    7.366250
     20          1           0       18.945811   10.032441    8.050894
     21          1           0       17.192243    9.918179    7.821258
     22          7           0       17.966855    6.549838    5.198936
     23          6           0       18.305793   10.374112    6.013683
     24          8           0       17.286132   10.894144    5.543806
     25          8           0       19.427762   10.327484    5.455567
     26         15           0       18.008485    9.937255    2.287174
     27          8           0       17.853772    8.501260    2.562932
     28          8           0       19.394562   10.562891    2.735957
     29          1           0       19.438888   10.552152    3.803872
     30          8           0       17.965335   10.194140    0.714489
     31          1           0       18.084328   11.211660    0.571911
     32          8           0       16.870053   10.878409    2.856066
     33          1           0       17.012818   10.972468    3.912939
     34          8           0       21.306852    8.530347    6.112647
     35          1           0       20.635082    9.232595    5.900287
     36          1           0       22.141633    8.975773    6.044107
 ---------------------------------------------------------------------
                    Distance matrix (angstroms):
                    1          2          3          4          5
     1  C    0.000000
     2  H    1.101447   0.000000
     3  H    1.098109   1.793670   0.000000
     4  H    1.120244   1.772533   1.789365   0.000000
     5  C    2.443112   2.783135   2.657779   3.429141   0.000000
     6  H    2.709765   2.593031   2.999998   3.766766   1.103184
     7  H    3.420087   3.790373   3.690374   4.294373   1.106464
     8  H    2.700392   3.171620   2.444657   3.704358   1.101611
     9  C    2.460440   2.653732   3.429160   2.785692   2.448889
    10  H    3.058930   3.427907   4.027997   3.003566   3.350513
    11  H    3.359421   3.448803   4.222052   3.845771   2.504166
    12  H    2.494736   2.260859   3.560015   2.722228   3.057507
    13  C    2.443439   3.423419   2.744373   2.649460   2.473993
    14  H    2.666014   3.716175   2.497676   2.964023   2.692148
    15  H    2.594200   3.585955   3.009681   2.297495   3.427237
    16  C    3.843922   4.696945   4.194465   4.085089   3.052028
    17  H    4.069657   4.719930   4.617138   4.389788   2.987754
    18  H    4.392295   5.242433   4.525708   4.807006   3.126403
    19  C    4.875709   5.790566   5.246702   4.799167   4.541869
    20  H    5.821704   6.672774   6.231913   5.804913   5.183722
    21  H    5.236302   6.248922   5.408961   5.110291   5.044788
    22  N    1.504686   2.166810   2.166145   2.170307   1.502357
    23  C    4.758976   5.588100   5.332510   4.376819   5.056673
    24  O    4.898844   5.783589   5.365302   4.290093   5.673434
    25  O    4.972702   5.607552   5.743320   4.623656   5.184310
    26  P    4.278775   4.575537   5.126384   3.357850   5.943645
    27  O    2.906422   3.108941   3.823748   2.068297   4.714683
    28  O    5.168652   5.448553   6.115389   4.457569   6.299829
    29  H    5.001280   5.435050   5.905399   4.405520   5.814123
    30  O    5.333977   5.394277   6.155486   4.377209   7.211525
    31  H    6.231094   6.367389   7.036494   5.250813   8.028196
    32  O    4.832809   5.393976   5.442383   3.812305   6.538699
    33  H    4.761259   5.477757   5.328552   3.865495   6.153888
    34  O    5.304580   5.638327   6.137038   5.475142   4.457276
    35  H    5.069887   5.528738   5.900019   5.059897   4.602134
    36  H    6.170318   6.443267   7.040962   6.286416   5.364088
                    6          7          8          9         10
     6  H    0.000000
     7  H    1.783422   0.000000
     8  H    1.786558   1.782689   0.000000
     9  C    2.693069   2.713589   3.424886   0.000000
    10  H    3.765761   3.472893   4.237010   1.116474   0.000000
    11  H    2.630358   2.365558   3.587135   1.102336   1.768442
    12  H    2.949543   3.525912   3.997411   1.103513   1.764411
    13  C    3.446916   2.742411   2.721170   2.506071   2.545499
    14  H    3.706073   3.074196   2.467495   3.454618   3.626995
    15  H    4.275536   3.786723   3.704103   2.782061   2.463710
    16  C    4.057128   2.712562   3.420928   2.998900   2.826086
    17  H    3.810392   2.430665   3.653005   2.541119   2.402513
    18  H    4.175626   2.602672   3.243163   3.792012   3.823005
    19  C    5.529951   4.232453   4.867691   4.011862   3.428662
    20  H    6.133620   4.664440   5.570228   4.629881   4.022601
    21  H    6.099925   4.825880   5.146148   4.835302   4.316783
    22  N    2.158660   2.158223   2.163541   1.503281   2.175668
    23  C    5.906604   4.953898   5.539742   3.796051   2.892462
    24  O    6.528789   5.759671   6.019705   4.476906   3.601127
    25  O    5.872127   5.015312   5.878988   3.452480   2.402746
    26  P    6.290429   6.399901   6.560632   3.929094   3.190800
    27  O    4.961681   5.314479   5.323405   2.876719   2.501492
    28  O    6.658145   6.505780   7.072361   4.014886   3.047125
    29  H    6.302060   5.886352   6.573754   3.643873   2.554774
    30  O    7.399435   7.755211   7.829137   5.175168   4.567577
    31  H    8.280563   8.498122   8.651381   5.929210   5.190666
    32  O    7.084193   6.979187   6.965855   4.871288   4.072699
    33  H    6.829598   6.470240   6.556597   4.615117   3.740455
    34  O    4.877786   3.889010   5.394358   2.988600   2.557339
    35  H    5.152203   4.177824   5.466422   2.944700   2.192147
    36  H    5.712377   4.769464   6.320338   3.795881   3.300438
                   11         12         13         14         15
    11  H    0.000000
    12  H    1.797989   0.000000
    13  C    3.100488   3.377115   0.000000
    14  H    4.021673   4.231457   1.109308   0.000000
    15  H    3.599755   3.468835   1.125839   1.780303   0.000000
    16  C    3.126588   4.073040   1.533241   2.185013   2.199913
    17  H    2.337695   3.636949   2.204212   3.054167   2.838061
    18  H    3.753182   4.866346   2.183671   2.360390   3.051504
    19  C    4.235831   5.011424   2.528886   3.088364   2.554099
    20  H    4.625065   5.657161   3.487922   4.057317   3.615719
    21  H    5.159074   5.804778   2.878144   3.064467   2.828110
    22  N    2.179153   2.175001   1.522530   2.154398   2.143295
    23  C    4.244758   4.586072   2.896571   3.680715   2.355837
    24  O    5.132174   5.118055   3.300228   3.865303   2.431310
    25  O    3.759942   4.140491   3.449644   4.430799   3.010346
    26  P    4.842652   3.741246   4.477474   5.255193   3.559859
    27  O    3.907017   2.550047   3.649055   4.387818   2.939195
    28  O    4.648494   3.973561   4.882933   5.839894   4.107946
    29  H    4.181294   3.895715   4.239669   5.231082   3.536996
    30  O    6.067393   4.713037   5.968570   6.686014   5.063847
    31  H    6.770255   5.561512   6.600691   7.333160   5.635034
    32  O    5.810866   4.929147   4.592809   5.170176   3.495105
    33  H    5.473817   4.911560   3.988669   4.577086   2.898872
    34  O    2.418991   3.746417   4.048316   5.070384   4.315233
    35  H    2.738766   3.728879   3.648407   4.699863   3.696058
    36  H    3.199304   4.417529   4.966992   5.997098   5.154666
                   16         17         18         19         20
    16  C    0.000000
    17  H    1.113868   0.000000
    18  H    1.105649   1.762847   0.000000
    19  C    1.530459   2.155775   2.167870   0.000000
    20  H    2.180264   2.425658   2.550271   1.105222   0.000000
    21  H    2.191118   3.083558   2.484026   1.104533   1.772227
    22  N    2.557782   2.618026   3.122511   3.792831   4.606576
    23  C    2.511685   2.827850   3.471709   1.537838   2.162543
    24  O    3.352283   3.887238   4.243927   2.371600   3.127708
    25  O    2.995414   2.826021   4.023051   2.387136   2.656134
    26  P    5.210115   5.245642   6.280565   5.089223   5.840215
    27  O    4.642911   4.663002   5.637456   4.949948   5.801275
    28  O    5.167730   4.961387   6.272938   4.876062   5.360160
    29  H    4.292054   4.090858   5.387967   3.888264   4.307020
    30  O    6.781760   6.769824   7.845318   6.676435   7.403399
    31  H    7.279680   7.277887   8.362067   6.970571   7.620229
    32  O    5.304486   5.623577   6.314141   4.848699   5.657797
    33  H    4.502203   4.898204   5.489426   3.870810   4.662916
    34  O    3.208736   2.193036   3.891447   3.566024   3.404057
    35  H    2.870456   2.097442   3.735124   2.904255   2.849298
    36  H    4.086705   3.098929   4.740765   4.246474   3.918803
                   21         22         23         24         25
    21  H    0.000000
    22  N    4.338469   0.000000
    23  C    2.171450   3.924763   0.000000
    24  O    2.479538   4.410818   1.237306   0.000000
    25  O    3.280483   4.058413   1.253986   2.217086   0.000000
    26  P    5.593988   4.467067   3.763789   3.470314   3.493614
    27  O    5.485916   3.281669   3.952161   3.864417   3.765618
    28  O    5.579081   4.920285   3.458980   3.526928   2.729981
    29  H    4.646367   4.486825   2.489752   2.789030   1.666942
    30  O    7.154019   5.778512   5.313168   4.926827   4.963295
    31  H    7.417678   6.569303   5.510301   5.045560   5.141661
    32  O    5.067443   5.042672   3.505169   2.719801   3.688197
    33  H    4.051997   4.703576   2.538295   1.655464   2.937288
    34  O    4.666416   3.989093   3.523580   4.698649   2.681872
    35  H    4.001662   3.848183   2.596441   3.755435   1.689432
    36  H    5.342551   4.901861   4.082885   5.244649   3.088462
                   26         27         28         29         30
    26  P    0.000000
    27  O    1.470395   0.000000
    28  O    1.585571   2.579592   0.000000
    29  H    2.173597   2.873792   1.068888   0.000000
    30  O    1.594111   2.508990   2.502998   3.441485   0.000000
    31  H    2.138221   3.370992   2.611649   3.565860   1.034328
    32  O    1.582857   2.589299   2.546983   2.757479   2.500844
    33  H    2.169362   2.938808   2.688074   2.464625   3.426830
    34  O    5.243363   4.952281   4.380653   3.592691   6.563083
    35  H    4.522183   4.405505   3.649871   2.750830   5.911397
    36  H    5.667619   5.543419   4.583579   3.848175   6.879732
                   31         32         33         34         35
    31  H    0.000000
    32  O    2.608234   0.000000
    33  H    3.516790   1.070612   0.000000
    34  O    6.947939   5.983636   5.407532   0.000000
    35  H    6.230139   5.113847   4.483024   0.994748   0.000000
    36  H    7.169787   6.447727   5.901984   0.948663   1.535037
                   36
    36  H    0.000000
 Symmetry turned off by external request.
 Stoichiometry    C7H20NO7P
 Framework group  C1[X(C7H20NO7P)]
 Deg. of freedom   102
 Full point group                 C1      NOp   1
 Rotational constants (GHZ):           0.5645448           0.3381387           0.2822102
 Leave Link  202 at Thu May 19 13:14:16 2022, MaxMem=   671088640 cpu:               0.0 elap:               0.0
 (Enter /data0/hywu0/study/g16/l122.exe)
 Counterpoise: doing full-system calculation.
 Leave Link  122 at Thu May 19 13:14:16 2022, MaxMem=   671088640 cpu:               0.0 elap:               0.0
 (Enter /data0/hywu0/study/g16/l301.exe)
 Standard basis: 6-311+G(2d,p) (5D, 7F)
 Ernie: Thresh=  0.10000D-02 Tol=  0.10000D-05 Strict=F.
   560 basis functions,   846 primitive gaussians,   592 cartesian basis functions
    70 alpha electrons       70 beta electrons
       nuclear repulsion energy      1523.4842238134 Hartrees.
 IExCor= 4336 DFT=T Ex+Corr=M062X ExCW=0 ScaHFX=  0.540000
 ScaDFX=  1.000000  1.000000  1.000000  1.000000 ScalE2=  1.000000  1.000000
 IRadAn=      5 IRanWt=     -1 IRanGd=            0 ICorTp=0 IEmpDi=131
 NAtoms=   36 NActive=   36 NUniq=   36 SFac= 1.00D+00 NAtFMM=   60 NAOKFM=F Big=F
 Integral buffers will be    131072 words long.
 Raffenetti 2 integral format.
 Two-electron integral symmetry is turned off.
 R6Disp:  Grimme-D3 Dispersion energy=       -0.0027017640 Hartrees.
 Nuclear repulsion after empirical dispersion term =     1523.4815220494 Hartrees.
 Leave Link  301 at Thu May 19 13:14:16 2022, MaxMem=   671088640 cpu:               0.4 elap:               0.1
 (Enter /data0/hywu0/study/g16/l302.exe)
 NPDir=0 NMtPBC=     1 NCelOv=     1 NCel=       1 NClECP=     1 NCelD=      1
         NCelK=      1 NCelE2=     1 NClLst=     1 CellRange=     0.0.
 One-electron integrals computed using PRISM.
 NBasis=   560 RedAO= T EigKep=  6.99D-06  NBF=   560
 NBsUse=   560 1.00D-06 EigRej= -1.00D+00 NBFU=   560
 Precomputing XC quadrature grid using
 IXCGrd= 4 IRadAn=           5 IRanWt=          -1 IRanGd=           0 AccXCQ= 0.00D+00.
 Generated NRdTot=       0 NPtTot=           0 NUsed=           0 NTot=          32
 NSgBfM=   592   592   592   592   592 MxSgAt=    36 MxSgA2=    36.
 Leave Link  302 at Thu May 19 13:14:17 2022, MaxMem=   671088640 cpu:               7.6 elap:               1.0
 (Enter /data0/hywu0/study/g16/l303.exe)
 DipDrv:  MaxL=1.
 Leave Link  303 at Thu May 19 13:14:17 2022, MaxMem=   671088640 cpu:               0.7 elap:               0.1
 (Enter /data0/hywu0/study/g16/l401.exe)
 ExpMin= 3.48D-02 ExpMax= 7.75D+04 ExpMxC= 2.65D+03 IAcc=3 IRadAn=         5 AccDes= 0.00D+00
 Harris functional with IExCor= 1009 and IRadAn=       5 diagonalized for initial guess.
 HarFok:  IExCor= 1009 AccDes= 0.00D+00 IRadAn=         5 IDoV= 1 UseB2=F ITyADJ=14
 ICtDFT=  3500011 ScaDFX=  1.000000  1.000000  1.000000  1.000000
 FoFCou: FMM=F IPFlag=           0 FMFlag=      100000 FMFlg1=           0
         NFxFlg=           0 DoJE=T BraDBF=F KetDBF=T FulRan=T
         wScrn=  0.000000 ICntrl=       500 IOpCl=  0 I1Cent=   200000004 NGrid=           0
         NMat0=    1 NMatS0=      1 NMatT0=    0 NMatD0=    1 NMtDS0=    0 NMtDT0=    0
 Symmetry not used in FoFCou.
 Harris En= -1201.08825147332    
 JPrj=0 DoOrth=F DoCkMO=F.
 Leave Link  401 at Thu May 19 13:14:25 2022, MaxMem=   671088640 cpu:              63.7 elap:               8.0
 (Enter /data0/hywu0/study/g16/l502.exe)
 Two-electron integral symmetry not used.
 Closed shell SCF:
 Using DIIS extrapolation, IDIIS=  1040.
 NGot=   671088640 LenX=   670378728 LenY=   670027672
 Requested convergence on RMS density matrix=1.00D-08 within 128 cycles.
 Requested convergence on MAX density matrix=1.00D-06.
 Requested convergence on             energy=1.00D-06.
 No special actions if energy rises.
 Fock matrices will be formed incrementally for  20 cycles.

 Cycle   1  Pass 1  IDiag  1:
 FoFJK:  IHMeth= 1 ICntrl=       0 DoSepK=F KAlg= 0 I1Cent=           0 FoldK=F
 IRaf= 870000000 NMat=       1 IRICut=       1 DoRegI=T DoRafI=F ISym2E= 0 IDoP0=0 IntGTp=1.
 FoFCou: FMM=F IPFlag=           0 FMFlag=      100000 FMFlg1=           0
         NFxFlg=           0 DoJE=F BraDBF=F KetDBF=F FulRan=T
         wScrn=  0.000000 ICntrl=         0 IOpCl=  0 I1Cent=           0 NGrid=           0
         NMat0=    1 NMatS0=      1 NMatT0=    0 NMatD0=    1 NMtDS0=    0 NMtDT0=    0
 Symmetry not used in FoFCou.
 E= -1200.87751720539    
 DIIS: error= 2.72D-02 at cycle   1 NSaved=   1.
 NSaved= 1 IEnMin= 1 EnMin= -1200.87751720539     IErMin= 1 ErrMin= 2.72D-02
 ErrMax= 2.72D-02  0.00D+00 EMaxC= 1.00D-01 BMatC= 1.05D+00 BMatP= 1.05D+00
 IDIUse=3 WtCom= 7.28D-01 WtEn= 2.72D-01
 Coeff-Com:  0.100D+01
 Coeff-En:   0.100D+01
 Coeff:      0.100D+01
 Gap=     0.335 Goal=   None    Shift=    0.000
 GapD=    0.335 DampG=1.000 DampE=0.500 DampFc=0.5000 IDamp=-1.
 Damping current iteration by 5.00D-01
 RMSDP=6.04D-03 MaxDP=5.74D-01              OVMax= 2.27D-01

 Cycle   2  Pass 1  IDiag  1:
 RMSU=  2.99D-03    CP:  1.04D+00
 E= -1201.17829973318     Delta-E=       -0.300782527795 Rises=F Damp=T
 DIIS: error= 5.99D-03 at cycle   2 NSaved=   2.
 NSaved= 2 IEnMin= 2 EnMin= -1201.17829973318     IErMin= 2 ErrMin= 5.99D-03
 ErrMax= 5.99D-03  0.00D+00 EMaxC= 1.00D-01 BMatC= 5.93D-02 BMatP= 1.05D+00
 IDIUse=3 WtCom= 9.40D-01 WtEn= 5.99D-02
 Coeff-Com:  0.142D-01 0.986D+00
 Coeff-En:   0.699D-01 0.930D+00
 Coeff:      0.176D-01 0.982D+00
 Gap=     0.332 Goal=   None    Shift=    0.000
 RMSDP=2.84D-03 MaxDP=5.37D-01 DE=-3.01D-01 OVMax= 1.37D-01

 Cycle   3  Pass 1  IDiag  1:
 RMSU=  2.15D-03    CP:  8.92D-01  6.93D-01
 E= -1201.51808121407     Delta-E=       -0.339781480886 Rises=F Damp=F
 DIIS: error= 3.47D-03 at cycle   3 NSaved=   3.
 NSaved= 3 IEnMin= 3 EnMin= -1201.51808121407     IErMin= 3 ErrMin= 3.47D-03
 ErrMax= 3.47D-03  0.00D+00 EMaxC= 1.00D-01 BMatC= 1.82D-02 BMatP= 5.93D-02
 IDIUse=3 WtCom= 9.65D-01 WtEn= 3.47D-02
 Coeff-Com: -0.470D-01 0.318D+00 0.729D+00
 Coeff-En:   0.000D+00 0.000D+00 0.100D+01
 Coeff:     -0.454D-01 0.307D+00 0.739D+00
 Gap=     0.317 Goal=   None    Shift=    0.000
 RMSDP=4.95D-04 MaxDP=4.47D-02 DE=-3.40D-01 OVMax= 3.93D-02

 Cycle   4  Pass 1  IDiag  1:
 RMSU=  3.72D-04    CP:  9.02D-01  7.86D-01  9.42D-01
 E= -1201.52717130339     Delta-E=       -0.009090089324 Rises=F Damp=F
 DIIS: error= 2.14D-03 at cycle   4 NSaved=   4.
 NSaved= 4 IEnMin= 4 EnMin= -1201.52717130339     IErMin= 4 ErrMin= 2.14D-03
 ErrMax= 2.14D-03  0.00D+00 EMaxC= 1.00D-01 BMatC= 5.63D-03 BMatP= 1.82D-02
 IDIUse=3 WtCom= 9.79D-01 WtEn= 2.14D-02
 Coeff-Com: -0.253D-01 0.724D-01 0.397D+00 0.556D+00
 Coeff-En:   0.000D+00 0.000D+00 0.221D+00 0.779D+00
 Coeff:     -0.248D-01 0.709D-01 0.393D+00 0.560D+00
 Gap=     0.320 Goal=   None    Shift=    0.000
 RMSDP=2.23D-04 MaxDP=2.92D-02 DE=-9.09D-03 OVMax= 1.52D-02

 Cycle   5  Pass 1  IDiag  1:
 RMSU=  1.03D-04    CP:  8.95D-01  7.53D-01  9.73D-01  6.29D-01
 E= -1201.53109835488     Delta-E=       -0.003927051488 Rises=F Damp=F
 DIIS: error= 3.70D-04 at cycle   5 NSaved=   5.
 NSaved= 5 IEnMin= 5 EnMin= -1201.53109835488     IErMin= 5 ErrMin= 3.70D-04
 ErrMax= 3.70D-04  0.00D+00 EMaxC= 1.00D-01 BMatC= 1.90D-04 BMatP= 5.63D-03
 IDIUse=3 WtCom= 9.96D-01 WtEn= 3.70D-03
 Coeff-Com: -0.810D-02 0.155D-01 0.135D+00 0.248D+00 0.610D+00
 Coeff-En:   0.000D+00 0.000D+00 0.000D+00 0.000D+00 0.100D+01
 Coeff:     -0.807D-02 0.154D-01 0.134D+00 0.248D+00 0.611D+00
 Gap=     0.311 Goal=   None    Shift=    0.000
 RMSDP=3.76D-05 MaxDP=2.62D-03 DE=-3.93D-03 OVMax= 2.67D-03

 Cycle   6  Pass 1  IDiag  1:
 RMSU=  3.25D-05    CP:  8.95D-01  7.52D-01  9.72D-01  6.65D-01  8.74D-01
 E= -1201.53122641661     Delta-E=       -0.000128061729 Rises=F Damp=F
 DIIS: error= 8.91D-05 at cycle   6 NSaved=   6.
 NSaved= 6 IEnMin= 6 EnMin= -1201.53122641661     IErMin= 6 ErrMin= 8.91D-05
 ErrMax= 8.91D-05  0.00D+00 EMaxC= 1.00D-01 BMatC= 1.49D-05 BMatP= 1.90D-04
 IDIUse=1 WtCom= 1.00D+00 WtEn= 0.00D+00
 Coeff-Com: -0.137D-02 0.965D-03 0.249D-01 0.603D-01 0.270D+00 0.645D+00
 Coeff:     -0.137D-02 0.965D-03 0.249D-01 0.603D-01 0.270D+00 0.645D+00
 Gap=     0.312 Goal=   None    Shift=    0.000
 RMSDP=1.57D-05 MaxDP=2.58D-03 DE=-1.28D-04 OVMax= 8.13D-04

 Cycle   7  Pass 1  IDiag  1:
 RMSU=  1.26D-05    CP:  8.95D-01  7.53D-01  9.73D-01  6.70D-01  8.74D-01
                    CP:  7.57D-01
 E= -1201.53123790848     Delta-E=       -0.000011491872 Rises=F Damp=F
 DIIS: error= 3.42D-05 at cycle   7 NSaved=   7.
 NSaved= 7 IEnMin= 7 EnMin= -1201.53123790848     IErMin= 7 ErrMin= 3.42D-05
 ErrMax= 3.42D-05  0.00D+00 EMaxC= 1.00D-01 BMatC= 1.34D-06 BMatP= 1.49D-05
 IDIUse=1 WtCom= 1.00D+00 WtEn= 0.00D+00
 Coeff-Com:  0.161D-03-0.994D-03-0.181D-02 0.240D-02 0.592D-01 0.262D+00
 Coeff-Com:  0.679D+00
 Coeff:      0.161D-03-0.994D-03-0.181D-02 0.240D-02 0.592D-01 0.262D+00
 Coeff:      0.679D+00
 Gap=     0.312 Goal=   None    Shift=    0.000
 RMSDP=4.67D-06 MaxDP=4.99D-04 DE=-1.15D-05 OVMax= 4.33D-04

 Cycle   8  Pass 1  IDiag  1:
 RMSU=  3.28D-06    CP:  8.95D-01  7.52D-01  9.73D-01  6.70D-01  8.88D-01
                    CP:  8.05D-01  9.78D-01
 E= -1201.53123877497     Delta-E=       -0.000000866487 Rises=F Damp=F
 DIIS: error= 1.94D-05 at cycle   8 NSaved=   8.
 NSaved= 8 IEnMin= 8 EnMin= -1201.53123877497     IErMin= 8 ErrMin= 1.94D-05
 ErrMax= 1.94D-05  0.00D+00 EMaxC= 1.00D-01 BMatC= 3.69D-07 BMatP= 1.34D-06
 IDIUse=1 WtCom= 1.00D+00 WtEn= 0.00D+00
 Coeff-Com:  0.356D-03-0.726D-03-0.586D-02-0.105D-01-0.198D-01 0.128D-01
 Coeff-Com:  0.369D+00 0.654D+00
 Coeff:      0.356D-03-0.726D-03-0.586D-02-0.105D-01-0.198D-01 0.128D-01
 Coeff:      0.369D+00 0.654D+00
 Gap=     0.312 Goal=   None    Shift=    0.000
 RMSDP=2.65D-06 MaxDP=4.27D-04 DE=-8.66D-07 OVMax= 1.23D-04

 Cycle   9  Pass 1  IDiag  1:
 RMSU=  1.70D-06    CP:  8.95D-01  7.52D-01  9.73D-01  6.70D-01  8.97D-01
                    CP:  8.13D-01  1.01D+00  8.55D-01
 E= -1201.53123904970     Delta-E=       -0.000000274738 Rises=F Damp=F
 DIIS: error= 3.71D-06 at cycle   9 NSaved=   9.
 NSaved= 9 IEnMin= 9 EnMin= -1201.53123904970     IErMin= 9 ErrMin= 3.71D-06
 ErrMax= 3.71D-06  0.00D+00 EMaxC= 1.00D-01 BMatC= 1.86D-08 BMatP= 3.69D-07
 IDIUse=1 WtCom= 1.00D+00 WtEn= 0.00D+00
 Coeff-Com:  0.121D-03-0.196D-03-0.213D-02-0.425D-02-0.112D-01-0.110D-01
 Coeff-Com:  0.103D+00 0.256D+00 0.669D+00
 Coeff:      0.121D-03-0.196D-03-0.213D-02-0.425D-02-0.112D-01-0.110D-01
 Coeff:      0.103D+00 0.256D+00 0.669D+00
 Gap=     0.312 Goal=   None    Shift=    0.000
 RMSDP=5.81D-07 MaxDP=6.00D-05 DE=-2.75D-07 OVMax= 3.86D-05

 Cycle  10  Pass 1  IDiag  1:
 RMSU=  4.21D-07    CP:  8.95D-01  7.52D-01  9.73D-01  6.70D-01  8.96D-01
                    CP:  8.14D-01  1.03D+00  9.10D-01  9.07D-01
 E= -1201.53123906500     Delta-E=       -0.000000015294 Rises=F Damp=F
 DIIS: error= 1.35D-06 at cycle  10 NSaved=  10.
 NSaved=10 IEnMin=10 EnMin= -1201.53123906500     IErMin=10 ErrMin= 1.35D-06
 ErrMax= 1.35D-06  0.00D+00 EMaxC= 1.00D-01 BMatC= 2.64D-09 BMatP= 1.86D-08
 IDIUse=1 WtCom= 1.00D+00 WtEn= 0.00D+00
 Coeff-Com: -0.543D-05 0.200D-04-0.774D-05-0.206D-03-0.183D-02-0.718D-02
 Coeff-Com: -0.114D-01 0.442D-04 0.258D+00 0.763D+00
 Coeff:     -0.543D-05 0.200D-04-0.774D-05-0.206D-03-0.183D-02-0.718D-02
 Coeff:     -0.114D-01 0.442D-04 0.258D+00 0.763D+00
 Gap=     0.312 Goal=   None    Shift=    0.000
 RMSDP=2.32D-07 MaxDP=2.88D-05 DE=-1.53D-08 OVMax= 1.38D-05

 Cycle  11  Pass 1  IDiag  1:
 RMSU=  1.14D-07    CP:  8.95D-01  7.52D-01  9.73D-01  6.70D-01  8.97D-01
                    CP:  8.14D-01  1.03D+00  9.13D-01  1.00D+00  1.16D+00
 E= -1201.53123906730     Delta-E=       -0.000000002297 Rises=F Damp=F
 DIIS: error= 5.36D-07 at cycle  11 NSaved=  11.
 NSaved=11 IEnMin=11 EnMin= -1201.53123906730     IErMin=11 ErrMin= 5.36D-07
 ErrMax= 5.36D-07  0.00D+00 EMaxC= 1.00D-01 BMatC= 3.28D-10 BMatP= 2.64D-09
 IDIUse=1 WtCom= 1.00D+00 WtEn= 0.00D+00
 Coeff-Com: -0.145D-04 0.300D-04 0.221D-03 0.353D-03 0.469D-03-0.155D-02
 Coeff-Com: -0.147D-01-0.308D-01 0.252D-01 0.317D+00 0.703D+00
 Coeff:     -0.145D-04 0.300D-04 0.221D-03 0.353D-03 0.469D-03-0.155D-02
 Coeff:     -0.147D-01-0.308D-01 0.252D-01 0.317D+00 0.703D+00
 Gap=     0.312 Goal=   None    Shift=    0.000
 RMSDP=8.99D-08 MaxDP=9.84D-06 DE=-2.30D-09 OVMax= 4.14D-06

 Cycle  12  Pass 1  IDiag  1:
 RMSU=  5.25D-08    CP:  8.95D-01  7.52D-01  9.73D-01  6.70D-01  8.97D-01
                    CP:  8.14D-01  1.03D+00  9.20D-01  1.03D+00  1.17D+00
                    CP:  9.54D-01
 E= -1201.53123906754     Delta-E=       -0.000000000249 Rises=F Damp=F
 DIIS: error= 1.22D-07 at cycle  12 NSaved=  12.
 NSaved=12 IEnMin=12 EnMin= -1201.53123906754     IErMin=12 ErrMin= 1.22D-07
 ErrMax= 1.22D-07  0.00D+00 EMaxC= 1.00D-01 BMatC= 1.99D-11 BMatP= 3.28D-10
 IDIUse=1 WtCom= 1.00D+00 WtEn= 0.00D+00
 Coeff-Com: -0.393D-05 0.736D-05 0.752D-04 0.129D-03 0.310D-03 0.541D-04
 Coeff-Com: -0.353D-02-0.106D-01-0.148D-01 0.361D-01 0.214D+00 0.778D+00
 Coeff:     -0.393D-05 0.736D-05 0.752D-04 0.129D-03 0.310D-03 0.541D-04
 Coeff:     -0.353D-02-0.106D-01-0.148D-01 0.361D-01 0.214D+00 0.778D+00
 Gap=     0.312 Goal=   None    Shift=    0.000
 RMSDP=2.09D-08 MaxDP=1.84D-06 DE=-2.49D-10 OVMax= 1.46D-06

 Cycle  13  Pass 1  IDiag  1:
 RMSU=  1.33D-08    CP:  8.95D-01  7.52D-01  9.73D-01  6.70D-01  8.97D-01
                    CP:  8.14D-01  1.03D+00  9.20D-01  1.04D+00  1.19D+00
                    CP:  1.00D+00  9.82D-01
 E= -1201.53123906759     Delta-E=       -0.000000000043 Rises=F Damp=F
 DIIS: error= 5.05D-08 at cycle  13 NSaved=  13.
 NSaved=13 IEnMin=13 EnMin= -1201.53123906759     IErMin=13 ErrMin= 5.05D-08
 ErrMax= 5.05D-08  0.00D+00 EMaxC= 1.00D-01 BMatC= 3.24D-12 BMatP= 1.99D-11
 IDIUse=1 WtCom= 1.00D+00 WtEn= 0.00D+00
 Coeff-Com:  0.688D-06-0.143D-05-0.201D-05-0.254D-05 0.501D-04 0.199D-03
 Coeff-Com:  0.766D-03-0.940D-04-0.839D-02-0.273D-01-0.133D-01 0.296D+00
 Coeff-Com:  0.752D+00
 Coeff:      0.688D-06-0.143D-05-0.201D-05-0.254D-05 0.501D-04 0.199D-03
 Coeff:      0.766D-03-0.940D-04-0.839D-02-0.273D-01-0.133D-01 0.296D+00
 Coeff:      0.752D+00
 Gap=     0.312 Goal=   None    Shift=    0.000
 RMSDP=7.76D-09 MaxDP=9.90D-07 DE=-4.27D-11 OVMax= 5.55D-07

 SCF Done:  E(RM062X) =  -1201.53123907     A.U. after   13 cycles
            NFock= 13  Conv=0.78D-08     -V/T= 2.0034
 KE= 1.197445818271D+03 PE=-5.877684643218D+03 EE= 1.955226063830D+03
 Leave Link  502 at Thu May 19 13:21:43 2022, MaxMem=   671088640 cpu:            3489.9 elap:             437.5
 (Enter /data0/hywu0/study/g16/l601.exe)
 Copying SCF densities to generalized density rwf, IOpCl= 0 IROHF=0.

 **********************************************************************

            Population analysis using the SCF density.

 **********************************************************************

 Alpha  occ. eigenvalues --  -78.12710 -19.64139 -19.61530 -19.61391 -19.59574
 Alpha  occ. eigenvalues --  -19.59561 -19.58644 -19.56031 -14.90816 -10.64651
 Alpha  occ. eigenvalues --  -10.63311 -10.62298 -10.60913 -10.59480 -10.56912
 Alpha  occ. eigenvalues --  -10.54841  -6.93428  -5.05370  -5.05289  -5.05149
 Alpha  occ. eigenvalues --   -1.19396  -1.18523  -1.15222  -1.11712  -1.10966
 Alpha  occ. eigenvalues --   -1.10302  -1.08458  -1.06376  -0.92226  -0.86999
 Alpha  occ. eigenvalues --   -0.85319  -0.83403  -0.75454  -0.70927  -0.67614
 Alpha  occ. eigenvalues --   -0.62805  -0.62672  -0.61986  -0.60564  -0.60114
 Alpha  occ. eigenvalues --   -0.59838  -0.58764  -0.56221  -0.54434  -0.53586
 Alpha  occ. eigenvalues --   -0.52830  -0.52360  -0.52015  -0.50346  -0.49317
 Alpha  occ. eigenvalues --   -0.48788  -0.48444  -0.47894  -0.47576  -0.46575
 Alpha  occ. eigenvalues --   -0.45733  -0.45427  -0.44924  -0.44669  -0.43373
 Alpha  occ. eigenvalues --   -0.41956  -0.41552  -0.40767  -0.39208  -0.37661
 Alpha  occ. eigenvalues --   -0.36025  -0.34974  -0.34357  -0.34002  -0.32978
 Alpha virt. eigenvalues --   -0.01791   0.00364   0.00571   0.01710   0.02465
 Alpha virt. eigenvalues --    0.02967   0.03578   0.03874   0.04286   0.04609
 Alpha virt. eigenvalues --    0.05910   0.06704   0.06794   0.07203   0.07486
 Alpha virt. eigenvalues --    0.07655   0.07946   0.08257   0.09537   0.10255
 Alpha virt. eigenvalues --    0.10619   0.11091   0.11390   0.12207   0.12239
 Alpha virt. eigenvalues --    0.12920   0.13698   0.13766   0.14643   0.14876
 Alpha virt. eigenvalues --    0.15226   0.15382   0.15635   0.16001   0.16323
 Alpha virt. eigenvalues --    0.17102   0.17750   0.17957   0.18481   0.18849
 Alpha virt. eigenvalues --    0.19421   0.19523   0.20177   0.20425   0.20694
 Alpha virt. eigenvalues --    0.21367   0.22146   0.22728   0.23067   0.23557
 Alpha virt. eigenvalues --    0.24052   0.24236   0.24473   0.24924   0.25284
 Alpha virt. eigenvalues --    0.25493   0.25806   0.26415   0.26602   0.26918
 Alpha virt. eigenvalues --    0.27369   0.27846   0.28322   0.28540   0.29096
 Alpha virt. eigenvalues --    0.29683   0.30191   0.30333   0.30714   0.31169
 Alpha virt. eigenvalues --    0.32097   0.32479   0.33130   0.33229   0.33576
 Alpha virt. eigenvalues --    0.33892   0.34368   0.34703   0.35099   0.35431
 Alpha virt. eigenvalues --    0.36276   0.36758   0.37207   0.38391   0.38660
 Alpha virt. eigenvalues --    0.38960   0.39901   0.40512   0.40998   0.41402
 Alpha virt. eigenvalues --    0.42474   0.43082   0.43461   0.44050   0.45493
 Alpha virt. eigenvalues --    0.45737   0.46230   0.47078   0.47607   0.49132
 Alpha virt. eigenvalues --    0.49390   0.50339   0.50711   0.51657   0.52392
 Alpha virt. eigenvalues --    0.53263   0.53919   0.54124   0.54530   0.55846
 Alpha virt. eigenvalues --    0.56343   0.57356   0.57785   0.58262   0.58658
 Alpha virt. eigenvalues --    0.59739   0.60255   0.60847   0.61172   0.61795
 Alpha virt. eigenvalues --    0.62239   0.63079   0.64656   0.65485   0.66777
 Alpha virt. eigenvalues --    0.67265   0.67640   0.68355   0.68910   0.69461
 Alpha virt. eigenvalues --    0.70295   0.71105   0.71143   0.72527   0.73304
 Alpha virt. eigenvalues --    0.73851   0.74164   0.74398   0.75341   0.76381
 Alpha virt. eigenvalues --    0.77561   0.77952   0.79107   0.79606   0.80505
 Alpha virt. eigenvalues --    0.81874   0.83175   0.83586   0.84886   0.85121
 Alpha virt. eigenvalues --    0.86289   0.87651   0.88474   0.89026   0.90516
 Alpha virt. eigenvalues --    0.90597   0.92121   0.94594   0.95559   0.95707
 Alpha virt. eigenvalues --    0.98111   0.99998   1.01899   1.03260   1.06035
 Alpha virt. eigenvalues --    1.07024   1.09171   1.09671   1.10187   1.11576
 Alpha virt. eigenvalues --    1.12575   1.13110   1.13667   1.14160   1.15007
 Alpha virt. eigenvalues --    1.15427   1.15803   1.17888   1.18003   1.18471
 Alpha virt. eigenvalues --    1.18711   1.20098   1.20444   1.21745   1.22237
 Alpha virt. eigenvalues --    1.23736   1.23914   1.24647   1.25281   1.25349
 Alpha virt. eigenvalues --    1.26262   1.26807   1.27144   1.28154   1.29606
 Alpha virt. eigenvalues --    1.29903   1.30035   1.30960   1.32384   1.32615
 Alpha virt. eigenvalues --    1.33082   1.34399   1.34559   1.35421   1.36170
 Alpha virt. eigenvalues --    1.37316   1.38045   1.39170   1.39335   1.40295
 Alpha virt. eigenvalues --    1.41369   1.41500   1.42185   1.43423   1.43802
 Alpha virt. eigenvalues --    1.44715   1.45667   1.46391   1.47982   1.49099
 Alpha virt. eigenvalues --    1.50670   1.51545   1.53471   1.54614   1.56810
 Alpha virt. eigenvalues --    1.57145   1.58088   1.58569   1.60387   1.61192
 Alpha virt. eigenvalues --    1.61787   1.62597   1.63165   1.65448   1.66912
 Alpha virt. eigenvalues --    1.67704   1.70152   1.71213   1.72241   1.72580
 Alpha virt. eigenvalues --    1.73922   1.74936   1.75766   1.76343   1.77405
 Alpha virt. eigenvalues --    1.78051   1.78793   1.79834   1.80493   1.80866
 Alpha virt. eigenvalues --    1.82207   1.82957   1.84000   1.85126   1.85897
 Alpha virt. eigenvalues --    1.88176   1.88674   1.89259   1.90402   1.90900
 Alpha virt. eigenvalues --    1.92669   1.93428   1.95125   1.95695   1.97164
 Alpha virt. eigenvalues --    1.98747   2.00042   2.01049   2.03715   2.04034
 Alpha virt. eigenvalues --    2.05853   2.07053   2.08388   2.09588   2.10911
 Alpha virt. eigenvalues --    2.11981   2.13512   2.14394   2.14894   2.15475
 Alpha virt. eigenvalues --    2.17179   2.18580   2.19363   2.20926   2.22419
 Alpha virt. eigenvalues --    2.22593   2.24003   2.26436   2.27703   2.28328
 Alpha virt. eigenvalues --    2.29226   2.30652   2.31567   2.31837   2.32891
 Alpha virt. eigenvalues --    2.33384   2.34269   2.35547   2.36296   2.37212
 Alpha virt. eigenvalues --    2.37402   2.38285   2.38923   2.39782   2.41311
 Alpha virt. eigenvalues --    2.42095   2.42996   2.43830   2.44671   2.46857
 Alpha virt. eigenvalues --    2.47371   2.49081   2.50096   2.52248   2.54910
 Alpha virt. eigenvalues --    2.55545   2.56757   2.57815   2.59920   2.62787
 Alpha virt. eigenvalues --    2.65137   2.66338   2.68244   2.69690   2.71230
 Alpha virt. eigenvalues --    2.73146   2.75250   2.78560   2.78826   2.79881
 Alpha virt. eigenvalues --    2.80459   2.84353   2.85316   2.87480   2.88810
 Alpha virt. eigenvalues --    2.89943   2.90531   2.91236   2.93382   2.96047
 Alpha virt. eigenvalues --    2.98262   3.00506   3.01314   3.02287   3.04953
 Alpha virt. eigenvalues --    3.04971   3.06669   3.11263   3.11547   3.14267
 Alpha virt. eigenvalues --    3.16352   3.18441   3.20489   3.23353   3.24099
 Alpha virt. eigenvalues --    3.27259   3.28167   3.29533   3.32580   3.34463
 Alpha virt. eigenvalues --    3.36292   3.36859   3.37361   3.39791   3.41508
 Alpha virt. eigenvalues --    3.43144   3.47638   3.48529   3.52900   3.53431
 Alpha virt. eigenvalues --    3.54783   3.55720   3.57808   3.59417   3.59956
 Alpha virt. eigenvalues --    3.60641   3.61862   3.64103   3.64537   3.68426
 Alpha virt. eigenvalues --    3.68577   3.68882   3.71326   3.73750   3.75365
 Alpha virt. eigenvalues --    3.76675   3.79123   3.80202   3.84571   3.85739
 Alpha virt. eigenvalues --    3.89525   3.93502   3.97431   4.04293   4.14099
 Alpha virt. eigenvalues --    4.14565   4.15300   4.15732   4.19405   4.19889
 Alpha virt. eigenvalues --    4.23535   4.25249   4.27078   4.37545   4.40825
 Alpha virt. eigenvalues --    4.51736   4.78922   4.81332   4.82535   5.11057
 Alpha virt. eigenvalues --    5.12339   5.15147   5.16529   5.17769   5.22065
 Alpha virt. eigenvalues --    5.24604   5.25512   5.25762   5.28914   5.32041
 Alpha virt. eigenvalues --    5.33576   5.36770   5.42459   5.45015   5.47838
 Alpha virt. eigenvalues --    5.49952   5.50765   5.53279   5.60047   5.62266
 Alpha virt. eigenvalues --    5.63675   5.66609   5.95567   6.01010   6.22999
 Alpha virt. eigenvalues --    6.78043   6.80334   6.81449   6.82529   6.83277
 Alpha virt. eigenvalues --    6.85393   6.85682   6.86555   6.88167   6.89972
 Alpha virt. eigenvalues --    6.90974   6.92529   6.93967   6.96549   6.97316
 Alpha virt. eigenvalues --    7.00371   7.02100   7.02658   7.04964   7.06317
 Alpha virt. eigenvalues --    7.07112   7.07993   7.08579   7.15176   7.18896
 Alpha virt. eigenvalues --    7.22237   7.27459   7.29913   7.31272   7.32203
 Alpha virt. eigenvalues --    7.35182   7.39300   7.40801   7.44780   7.47843
 Alpha virt. eigenvalues --    7.74627  14.29335  14.33638  14.42548  23.95193
 Alpha virt. eigenvalues --   23.99116  24.05688  24.06754  24.11865  24.13727
 Alpha virt. eigenvalues --   24.24567  35.53551  50.05793  50.07492  50.09794
 Alpha virt. eigenvalues --   50.11737  50.15627  50.18866  50.20986 164.00204
          Condensed to atoms (all electrons):
               1          2          3          4          5          6
     1  C    5.641153   0.413385   0.379554   0.404491  -0.145829  -0.023940
     2  H    0.413385   0.439268  -0.018895  -0.009891  -0.022625   0.001208
     3  H    0.379554  -0.018895   0.474835  -0.023109  -0.014233   0.000118
     4  H    0.404491  -0.009891  -0.023109   0.386707   0.014565   0.000069
     5  C   -0.145829  -0.022625  -0.014233   0.014565   5.549965   0.395481
     6  H   -0.023940   0.001208   0.000118   0.000069   0.395481   0.450103
     7  H    0.021708  -0.000074   0.000246  -0.000195   0.403930  -0.017043
     8  H   -0.018048   0.001204   0.000359   0.000244   0.423649  -0.019356
     9  C   -0.200492  -0.020124   0.037528  -0.033585  -0.235302  -0.018278
    10  H    0.001263  -0.000329  -0.000235  -0.000376   0.005438   0.000165
    11  H    0.014761   0.000294  -0.000192  -0.000090   0.005876  -0.000967
    12  H   -0.006074  -0.001760   0.000625  -0.000021  -0.013898   0.000385
    13  C   -0.241065   0.037781  -0.042776   0.006396  -0.319258   0.052023
    14  H   -0.006544  -0.000037  -0.000023   0.000077  -0.010804  -0.000030
    15  H    0.017313  -0.000425  -0.000104   0.002638   0.012295  -0.000290
    16  C    0.015094  -0.003134   0.009413  -0.005846   0.031789  -0.002646
    17  H    0.006673  -0.000051   0.000035   0.000019  -0.002157  -0.000414
    18  H   -0.002325   0.000007   0.000007  -0.000022  -0.002164   0.000006
    19  C   -0.012065   0.001171  -0.001884  -0.001520  -0.082441   0.003475
    20  H    0.000350  -0.000000  -0.000001  -0.000003   0.001410  -0.000002
    21  H    0.000660  -0.000001   0.000002  -0.000001   0.000238  -0.000002
    22  N    0.212383  -0.024344  -0.001535  -0.023005   0.349287  -0.030770
    23  C   -0.004626   0.000121   0.001815  -0.000493   0.014278  -0.000219
    24  O    0.001162   0.000017   0.000062  -0.000414  -0.000853  -0.000006
    25  O    0.000128  -0.000097  -0.000018  -0.000095   0.001249  -0.000025
    26  P   -0.022788   0.000282   0.000042   0.008094   0.002730   0.000107
    27  O   -0.013550  -0.006210   0.003736  -0.000071   0.008652  -0.000107
    28  O    0.003659  -0.000017   0.000004   0.000732  -0.000137  -0.000005
    29  H   -0.001049   0.000011  -0.000003   0.000160  -0.000106   0.000002
    30  O   -0.002501   0.000019   0.000011   0.000081   0.000398  -0.000000
    31  H    0.000110  -0.000001   0.000000   0.000022   0.000019  -0.000000
    32  O    0.001797  -0.000073   0.000086  -0.002530  -0.001363  -0.000002
    33  H    0.000029  -0.000000  -0.000014  -0.000117   0.000106   0.000001
    34  O   -0.001928   0.000026   0.000012   0.000049   0.002463  -0.000030
    35  H   -0.000857   0.000002  -0.000000   0.000049  -0.000807   0.000000
    36  H    0.000625   0.000001  -0.000000  -0.000000  -0.000609   0.000005
               7          8          9         10         11         12
     1  C    0.021708  -0.018048  -0.200492   0.001263   0.014761  -0.006074
     2  H   -0.000074   0.001204  -0.020124  -0.000329   0.000294  -0.001760
     3  H    0.000246   0.000359   0.037528  -0.000235  -0.000192   0.000625
     4  H   -0.000195   0.000244  -0.033585  -0.000376  -0.000090  -0.000021
     5  C    0.403930   0.423649  -0.235302   0.005438   0.005876  -0.013898
     6  H   -0.017043  -0.019356  -0.018278   0.000165  -0.000967   0.000385
     7  H    0.447888  -0.021195  -0.010936   0.000503  -0.000890   0.000335
     8  H   -0.021195   0.454590   0.024249  -0.000266   0.000529  -0.000083
     9  C   -0.010936   0.024249   5.993503   0.358898   0.403290   0.420726
    10  H    0.000503  -0.000266   0.358898   0.455399  -0.010777  -0.012418
    11  H   -0.000890   0.000529   0.403290  -0.010777   0.449524  -0.020020
    12  H    0.000335  -0.000083   0.420726  -0.012418  -0.020020   0.435105
    13  C   -0.061821  -0.032495  -0.149079   0.052344  -0.020191   0.007163
    14  H    0.000300  -0.000752   0.012214   0.000338  -0.000261  -0.000068
    15  H    0.000027   0.000413  -0.012362  -0.004335   0.000171  -0.000063
    16  C    0.031831   0.003232   0.022263  -0.044647  -0.016394   0.001947
    17  H   -0.001021   0.000150   0.010957  -0.004127  -0.001465  -0.000099
    18  H   -0.001134   0.000092   0.001705   0.000122   0.000097  -0.000035
    19  C    0.000978  -0.005233  -0.089107   0.030497   0.010286   0.004476
    20  H    0.000008  -0.000002   0.000721  -0.000041  -0.000001  -0.000005
    21  H   -0.000001   0.000016   0.001563  -0.000361  -0.000009  -0.000001
    22  N   -0.016217  -0.018743  -0.062924  -0.049117  -0.028877  -0.027419
    23  C    0.002283  -0.000181   0.037944  -0.015474  -0.009712  -0.003374
    24  O   -0.000002  -0.000017   0.013046  -0.004529  -0.000078   0.000037
    25  O   -0.000022  -0.000008  -0.017648   0.019393  -0.001194   0.000226
    26  P   -0.000096   0.000102  -0.021700  -0.008228   0.000680   0.001634
    27  O   -0.000014  -0.000024   0.003408  -0.007760   0.003791  -0.009798
    28  O   -0.000005  -0.000003  -0.008380   0.008597  -0.000165   0.000363
    29  H    0.000003   0.000001   0.003367  -0.001566   0.000428  -0.000222
    30  O   -0.000000   0.000000  -0.002083  -0.001509   0.000008  -0.000210
    31  H   -0.000000  -0.000000   0.000604   0.000013  -0.000000   0.000006
    32  O   -0.000003  -0.000002   0.013698   0.000652  -0.000050   0.000086
    33  H    0.000001   0.000001  -0.003684  -0.000020   0.000031   0.000017
    34  O   -0.000427  -0.000053  -0.027681  -0.005904  -0.017347   0.002513
    35  H   -0.000035   0.000002   0.004167  -0.002593   0.001694   0.000034
    36  H    0.000017   0.000000   0.001160  -0.000089  -0.000388   0.000037
              13         14         15         16         17         18
     1  C   -0.241065  -0.006544   0.017313   0.015094   0.006673  -0.002325
     2  H    0.037781  -0.000037  -0.000425  -0.003134  -0.000051   0.000007
     3  H   -0.042776  -0.000023  -0.000104   0.009413   0.000035   0.000007
     4  H    0.006396   0.000077   0.002638  -0.005846   0.000019  -0.000022
     5  C   -0.319258  -0.010804   0.012295   0.031789  -0.002157  -0.002164
     6  H    0.052023  -0.000030  -0.000290  -0.002646  -0.000414   0.000006
     7  H   -0.061821   0.000300   0.000027   0.031831  -0.001021  -0.001134
     8  H   -0.032495  -0.000752   0.000413   0.003232   0.000150   0.000092
     9  C   -0.149079   0.012214  -0.012362   0.022263   0.010957   0.001705
    10  H    0.052344   0.000338  -0.004335  -0.044647  -0.004127   0.000122
    11  H   -0.020191  -0.000261   0.000171  -0.016394  -0.001465   0.000097
    12  H    0.007163  -0.000068  -0.000063   0.001947  -0.000099  -0.000035
    13  C    7.973641   0.329739   0.389968  -1.354713  -0.136793   0.021998
    14  H    0.329739   0.462325  -0.026965   0.021015   0.002849  -0.011387
    15  H    0.389968  -0.026965   0.406848  -0.015333  -0.001904   0.003729
    16  C   -1.354713   0.021015  -0.015333   7.175594   0.525373   0.352489
    17  H   -0.136793   0.002849  -0.001904   0.525373   0.449022  -0.036833
    18  H    0.021998  -0.011387   0.003729   0.352489  -0.036833   0.516060
    19  C    0.572521  -0.011431  -0.054406  -1.047723  -0.052480  -0.018797
    20  H    0.033698  -0.000168   0.000356  -0.056170  -0.008557  -0.001629
    21  H   -0.025864  -0.000237   0.000839   0.037748   0.004539  -0.006931
    22  N   -0.371090   0.019837  -0.011906   0.248770   0.049164  -0.012005
    23  C   -0.378450   0.011765   0.043555   0.297686  -0.021570   0.025743
    24  O   -0.031873   0.001033   0.000889   0.012094   0.000759  -0.001622
    25  O    0.098723  -0.000626  -0.004043  -0.007163  -0.002645  -0.000254
    26  P   -0.018845   0.000461  -0.003846   0.020341  -0.000403   0.000059
    27  O   -0.079852   0.000122   0.007474  -0.004656   0.000132   0.000028
    28  O    0.008615   0.000011  -0.000642  -0.008388  -0.000095   0.000001
    29  H   -0.016681  -0.000008  -0.000240   0.017475   0.000240  -0.000019
    30  O   -0.004576   0.000002  -0.000111   0.000420   0.000003   0.000000
    31  H    0.000261   0.000000  -0.000012   0.000103  -0.000000   0.000000
    32  O    0.010877   0.000030  -0.000247  -0.003072   0.000090  -0.000010
    33  H   -0.010527  -0.000087   0.001360   0.005513  -0.000095   0.000017
    34  O    0.025355  -0.000148   0.000192  -0.054939   0.001150   0.001742
    35  H   -0.012784  -0.000015  -0.000407   0.057297  -0.001914  -0.000347
    36  H   -0.004533   0.000005   0.000001   0.007044  -0.001865  -0.000063
              19         20         21         22         23         24
     1  C   -0.012065   0.000350   0.000660   0.212383  -0.004626   0.001162
     2  H    0.001171  -0.000000  -0.000001  -0.024344   0.000121   0.000017
     3  H   -0.001884  -0.000001   0.000002  -0.001535   0.001815   0.000062
     4  H   -0.001520  -0.000003  -0.000001  -0.023005  -0.000493  -0.000414
     5  C   -0.082441   0.001410   0.000238   0.349287   0.014278  -0.000853
     6  H    0.003475  -0.000002  -0.000002  -0.030770  -0.000219  -0.000006
     7  H    0.000978   0.000008  -0.000001  -0.016217   0.002283  -0.000002
     8  H   -0.005233  -0.000002   0.000016  -0.018743  -0.000181  -0.000017
     9  C   -0.089107   0.000721   0.001563  -0.062924   0.037944   0.013046
    10  H    0.030497  -0.000041  -0.000361  -0.049117  -0.015474  -0.004529
    11  H    0.010286  -0.000001  -0.000009  -0.028877  -0.009712  -0.000078
    12  H    0.004476  -0.000005  -0.000001  -0.027419  -0.003374   0.000037
    13  C    0.572521   0.033698  -0.025864  -0.371090  -0.378450  -0.031873
    14  H   -0.011431  -0.000168  -0.000237   0.019837   0.011765   0.001033
    15  H   -0.054406   0.000356   0.000839  -0.011906   0.043555   0.000889
    16  C   -1.047723  -0.056170   0.037748   0.248770   0.297686   0.012094
    17  H   -0.052480  -0.008557   0.004539   0.049164  -0.021570   0.000759
    18  H   -0.018797  -0.001629  -0.006931  -0.012005   0.025743  -0.001622
    19  C    7.557648   0.435277   0.390282  -0.178656  -0.897016  -0.102770
    20  H    0.435277   0.495659  -0.029879  -0.000353  -0.067733   0.006775
    21  H    0.390282  -0.029879   0.490141   0.002417  -0.045085  -0.014768
    22  N   -0.178656  -0.000353   0.002417   6.935211   0.122116  -0.007341
    23  C   -0.897016  -0.067733  -0.045085   0.122116   5.927689   0.448429
    24  O   -0.102770   0.006775  -0.014768  -0.007341   0.448429   8.193277
    25  O   -0.061351  -0.003353   0.006272  -0.019595   0.201455  -0.062641
    26  P   -0.028374  -0.000188  -0.000131   0.030585   0.027775   0.032257
    27  O   -0.012390   0.000023   0.000012   0.053875   0.031791  -0.021355
    28  O    0.025554   0.000029  -0.000069  -0.008518  -0.034335  -0.012979
    29  H   -0.011625  -0.000251   0.000054   0.000769   0.033976   0.006629
    30  O   -0.003514   0.000002   0.000003   0.003480   0.005055   0.003856
    31  H    0.000043  -0.000000  -0.000000  -0.000280  -0.001802   0.000493
    32  O    0.011668  -0.000028   0.000077  -0.015637  -0.009258  -0.036157
    33  H   -0.010191  -0.000048  -0.000231   0.003168   0.011295   0.069191
    34  O    0.033162   0.000663  -0.000369   0.008152  -0.013600   0.000652
    35  H   -0.031226  -0.002508   0.000139  -0.004406   0.021209   0.001497
    36  H   -0.006739   0.000144   0.000013   0.001021   0.009520   0.000072
              25         26         27         28         29         30
     1  C    0.000128  -0.022788  -0.013550   0.003659  -0.001049  -0.002501
     2  H   -0.000097   0.000282  -0.006210  -0.000017   0.000011   0.000019
     3  H   -0.000018   0.000042   0.003736   0.000004  -0.000003   0.000011
     4  H   -0.000095   0.008094  -0.000071   0.000732   0.000160   0.000081
     5  C    0.001249   0.002730   0.008652  -0.000137  -0.000106   0.000398
     6  H   -0.000025   0.000107  -0.000107  -0.000005   0.000002  -0.000000
     7  H   -0.000022  -0.000096  -0.000014  -0.000005   0.000003  -0.000000
     8  H   -0.000008   0.000102  -0.000024  -0.000003   0.000001   0.000000
     9  C   -0.017648  -0.021700   0.003408  -0.008380   0.003367  -0.002083
    10  H    0.019393  -0.008228  -0.007760   0.008597  -0.001566  -0.001509
    11  H   -0.001194   0.000680   0.003791  -0.000165   0.000428   0.000008
    12  H    0.000226   0.001634  -0.009798   0.000363  -0.000222  -0.000210
    13  C    0.098723  -0.018845  -0.079852   0.008615  -0.016681  -0.004576
    14  H   -0.000626   0.000461   0.000122   0.000011  -0.000008   0.000002
    15  H   -0.004043  -0.003846   0.007474  -0.000642  -0.000240  -0.000111
    16  C   -0.007163   0.020341  -0.004656  -0.008388   0.017475   0.000420
    17  H   -0.002645  -0.000403   0.000132  -0.000095   0.000240   0.000003
    18  H   -0.000254   0.000059   0.000028   0.000001  -0.000019   0.000000
    19  C   -0.061351  -0.028374  -0.012390   0.025554  -0.011625  -0.003514
    20  H   -0.003353  -0.000188   0.000023   0.000029  -0.000251   0.000002
    21  H    0.006272  -0.000131   0.000012  -0.000069   0.000054   0.000003
    22  N   -0.019595   0.030585   0.053875  -0.008518   0.000769   0.003480
    23  C    0.201455   0.027775   0.031791  -0.034335   0.033976   0.005055
    24  O   -0.062641   0.032257  -0.021355  -0.012979   0.006629   0.003856
    25  O    8.503711   0.038935  -0.010277   0.003007   0.009889   0.003018
    26  P    0.038935  12.512883   0.432046   0.300261   0.013476   0.151198
    27  O   -0.010277   0.432046   8.392930  -0.027928   0.002152  -0.006440
    28  O    0.003007   0.300261  -0.027928   8.175037   0.212077  -0.002714
    29  H    0.009889   0.013476   0.002152   0.212077   0.307968   0.000356
    30  O    0.003018   0.151198  -0.006440  -0.002714   0.000356   8.105992
    31  H    0.000280   0.017308  -0.011719  -0.002865   0.000201   0.226340
    32  O   -0.017882   0.265381  -0.027925   0.018531  -0.015274  -0.009414
    33  H    0.010738   0.024344   0.004404  -0.008212   0.002151   0.001160
    34  O   -0.036322   0.002430  -0.000628   0.003841  -0.009367   0.000078
    35  H    0.016819  -0.001288  -0.000767  -0.005340   0.011152  -0.000081
    36  H    0.002768   0.000096   0.000056   0.000154  -0.000480  -0.000001
              31         32         33         34         35         36
     1  C    0.000110   0.001797   0.000029  -0.001928  -0.000857   0.000625
     2  H   -0.000001  -0.000073  -0.000000   0.000026   0.000002   0.000001
     3  H    0.000000   0.000086  -0.000014   0.000012  -0.000000  -0.000000
     4  H    0.000022  -0.002530  -0.000117   0.000049   0.000049  -0.000000
     5  C    0.000019  -0.001363   0.000106   0.002463  -0.000807  -0.000609
     6  H   -0.000000  -0.000002   0.000001  -0.000030   0.000000   0.000005
     7  H   -0.000000  -0.000003   0.000001  -0.000427  -0.000035   0.000017
     8  H   -0.000000  -0.000002   0.000001  -0.000053   0.000002   0.000000
     9  C    0.000604   0.013698  -0.003684  -0.027681   0.004167   0.001160
    10  H    0.000013   0.000652  -0.000020  -0.005904  -0.002593  -0.000089
    11  H   -0.000000  -0.000050   0.000031  -0.017347   0.001694  -0.000388
    12  H    0.000006   0.000086   0.000017   0.002513   0.000034   0.000037
    13  C    0.000261   0.010877  -0.010527   0.025355  -0.012784  -0.004533
    14  H    0.000000   0.000030  -0.000087  -0.000148  -0.000015   0.000005
    15  H   -0.000012  -0.000247   0.001360   0.000192  -0.000407   0.000001
    16  C    0.000103  -0.003072   0.005513  -0.054939   0.057297   0.007044
    17  H   -0.000000   0.000090  -0.000095   0.001150  -0.001914  -0.001865
    18  H    0.000000  -0.000010   0.000017   0.001742  -0.000347  -0.000063
    19  C    0.000043   0.011668  -0.010191   0.033162  -0.031226  -0.006739
    20  H   -0.000000  -0.000028  -0.000048   0.000663  -0.002508   0.000144
    21  H   -0.000000   0.000077  -0.000231  -0.000369   0.000139   0.000013
    22  N   -0.000280  -0.015637   0.003168   0.008152  -0.004406   0.001021
    23  C   -0.001802  -0.009258   0.011295  -0.013600   0.021209   0.009520
    24  O    0.000493  -0.036157   0.069191   0.000652   0.001497   0.000072
    25  O    0.000280  -0.017882   0.010738  -0.036322   0.016819   0.002768
    26  P    0.017308   0.265381   0.024344   0.002430  -0.001288   0.000096
    27  O   -0.011719  -0.027925   0.004404  -0.000628  -0.000767   0.000056
    28  O   -0.002865   0.018531  -0.008212   0.003841  -0.005340   0.000154
    29  H    0.000201  -0.015274   0.002151  -0.009367   0.011152  -0.000480
    30  O    0.226340  -0.009414   0.001160   0.000078  -0.000081  -0.000001
    31  H    0.465468  -0.003366  -0.000685  -0.000003   0.000008   0.000000
    32  O   -0.003366   8.205789   0.222786  -0.000299   0.000297   0.000001
    33  H   -0.000685   0.222786   0.255321   0.000054  -0.000067  -0.000006
    34  O   -0.000003  -0.000299   0.000054   8.236432   0.239306   0.248977
    35  H    0.000008   0.000297  -0.000067   0.239306   0.359946  -0.011281
    36  H    0.000000   0.000001  -0.000006   0.248977  -0.011281   0.451738
 Mulliken charges:
               1
     1  C   -0.432617
     2  H    0.213291
     3  H    0.194532
     4  H    0.276991
     5  C   -0.371235
     6  H    0.210986
     7  H    0.221072
     8  H    0.207628
     9  C   -0.451647
    10  H    0.241079
    11  H    0.237606
    12  H    0.219853
    13  C   -0.307840
    14  H    0.207466
    15  H    0.249575
    16  C   -0.269708
    17  H    0.223332
    18  H    0.171674
    19  C   -0.356100
    20  H    0.195805
    21  H    0.188925
    22  N   -0.127498
    23  C    0.227428
    24  O   -0.494821
    25  O   -0.671349
    26  P    1.222382
    27  O   -0.703161
    28  O   -0.639674
    29  H    0.434354
    30  O   -0.468328
    31  H    0.309452
    32  O   -0.609253
    33  H    0.422295
    34  O   -0.638202
    35  H    0.363105
    36  H    0.302599
 Sum of Mulliken charges =  -0.00000
 Mulliken charges with hydrogens summed into heavy atoms:
               1
     1  C    0.252196
     5  C    0.268452
     9  C    0.246891
    13  C    0.149200
    16  C    0.125299
    19  C    0.028630
    22  N   -0.127498
    23  C    0.227428
    24  O   -0.494821
    25  O   -0.671349
    26  P    1.222382
    27  O   -0.703161
    28  O   -0.205320
    30  O   -0.158875
    32  O   -0.186957
    34  O    0.027502
         Mulliken charges condensed to fragments:
      1      0.004429
      2     -0.031932
      3      0.027502
 Electronic spatial extent (au):  <R**2>=         221446.6521
 Charge=             -0.0000 electrons
 Dipole moment (field-independent basis, Debye):
    X=             -0.6503    Y=             -8.2252    Z=              4.6557  Tot=              9.4737
 Quadrupole moment (field-independent basis, Debye-Ang):
   XX=           -131.7213   YY=           -233.6815   ZZ=            -64.9978
   XY=           -147.3965   XZ=             77.8945   YZ=             -6.0520
 Traceless Quadrupole moment (field-independent basis, Debye-Ang):
   XX=             11.7456   YY=            -90.2146   ZZ=             78.4690
   XY=           -147.3965   XZ=             77.8945   YZ=             -6.0520
 Octapole moment (field-independent basis, Debye-Ang**2):
  XXX=          -6557.2219  YYY=          -4327.9637  ZZZ=          -1158.9714  XYY=          -4171.9708
  XXY=          -3598.7376  XXZ=            805.0094  XZZ=          -1245.8899  YZZ=           -811.7943
  YYZ=           -881.7893  XYZ=           -124.2500
 Hexadecapole moment (field-independent basis, Debye-Ang**3):
 XXXX=        -232040.4160 YYYY=         -68089.2143 ZZZZ=         -13695.7395 XXXY=         -99652.3700
 XXXZ=          -5561.9673 YYYX=         -77601.8112 YYYZ=         -18800.0941 ZZZX=         -21764.0775
 ZZZY=         -11099.0454 XXYY=         -83466.5722 XXZZ=         -26625.2565 YYZZ=         -11812.5944
 XXYZ=          -6697.8955 YYXZ=         -15855.7830 ZZXY=         -15060.3268
 N-N= 1.523481522049D+03 E-N=-5.877684651111D+03  KE= 1.197445818271D+03
 No NMR shielding tensors so no spin-rotation constants.
 Leave Link  601 at Thu May 19 13:21:43 2022, MaxMem=   671088640 cpu:               1.7 elap:               0.2
 (Enter /data0/hywu0/study/g16/l122.exe)
 CPIOFr:  IOpCl= 0 IRwI=-1 IRwCP=  731 ICalc= -1 LCPTot=      483070 Len1MO=     1266370 IndFrg=      483070
 CPIOFr:  IOpCl= 0 IRwI=-1 IRwCP=  731 ICalc=  0 LCPTot=      483070 Len1MO=     1266370 IndFrg=     1749440
 Counterpoise: doing calculation for fragment   1 using the basis set of the full-system, NewBq=T
 Leave Link  122 at Thu May 19 13:21:43 2022, MaxMem=   671088640 cpu:               0.2 elap:               0.0
 (Enter /data0/hywu0/study/g16/l301.exe)
 Basis read from rwf:  (5D, 7F)
 No pseudopotential information found on rwf file.
   560 basis functions,   846 primitive gaussians,   592 cartesian basis functions
    40 alpha electrons       40 beta electrons
       nuclear repulsion energy       587.0598354086 Hartrees.
 IExCor= 4336 DFT=T Ex+Corr=M062X ExCW=0 ScaHFX=  0.540000
 ScaDFX=  1.000000  1.000000  1.000000  1.000000 ScalE2=  1.000000  1.000000
 IRadAn=      5 IRanWt=     -1 IRanGd=            0 ICorTp=0 IEmpDi=131
 NAtoms=   36 NActive=   36 NUniq=   36 SFac= 1.00D+00 NAtFMM=   60 NAOKFM=F Big=F
 Integral buffers will be    131072 words long.
 Raffenetti 2 integral format.
 Two-electron integral symmetry is turned off.
 R6Disp:  Grimme-D3 Dispersion energy=       -0.0010347501 Hartrees.
 Nuclear repulsion after empirical dispersion term =      587.0588006585 Hartrees.
 No density basis found on file   718.
 Leave Link  301 at Thu May 19 13:21:43 2022, MaxMem=   671088640 cpu:               0.4 elap:               0.1
 (Enter /data0/hywu0/study/g16/l302.exe)
 NPDir=0 NMtPBC=     1 NCelOv=     1 NCel=       1 NClECP=     1 NCelD=      1
         NCelK=      1 NCelE2=     1 NClLst=     1 CellRange=     0.0.
 One-electron integrals computed using PRISM.
 NBasis=   560 RedAO= T EigKep=  6.99D-06  NBF=   560
 NBsUse=   560 1.00D-06 EigRej= -1.00D+00 NBFU=   560
 Precomputing XC quadrature grid using
 IXCGrd= 4 IRadAn=           5 IRanWt=          -1 IRanGd=           0 AccXCQ= 0.00D+00.
 Generated NRdTot=       0 NPtTot=           0 NUsed=           0 NTot=          32
 NSgBfM=   592   592   592   592   592 MxSgAt=    36 MxSgA2=    36.
 Leave Link  302 at Thu May 19 13:21:44 2022, MaxMem=   671088640 cpu:               7.1 elap:               0.9
 (Enter /data0/hywu0/study/g16/l303.exe)
 DipDrv:  MaxL=1.
 Leave Link  303 at Thu May 19 13:21:44 2022, MaxMem=   671088640 cpu:               0.7 elap:               0.1
 (Enter /data0/hywu0/study/g16/l401.exe)
 ExpMin= 3.48D-02 ExpMax= 7.75D+04 ExpMxC= 2.65D+03 IAcc=3 IRadAn=         5 AccDes= 0.00D+00
 Harris functional with IExCor= 1009 and IRadAn=       5 diagonalized for initial guess.
 HarFok:  IExCor= 1009 AccDes= 0.00D+00 IRadAn=         5 IDoV= 1 UseB2=F ITyADJ=14
 ICtDFT=  3500011 ScaDFX=  1.000000  1.000000  1.000000  1.000000
 FoFCou: FMM=F IPFlag=           0 FMFlag=      100000 FMFlg1=           0
         NFxFlg=           0 DoJE=T BraDBF=F KetDBF=T FulRan=T
         wScrn=  0.000000 ICntrl=       500 IOpCl=  0 I1Cent=   200000004 NGrid=           0
         NMat0=    1 NMatS0=      1 NMatT0=    0 NMatD0=    1 NMtDS0=    0 NMtDT0=    0
 Symmetry not used in FoFCou.
 Harris En= -480.724738470252    
 JPrj=0 DoOrth=F DoCkMO=F.
 Leave Link  401 at Thu May 19 13:21:51 2022, MaxMem=   671088640 cpu:              56.6 elap:               7.1
 (Enter /data0/hywu0/study/g16/l502.exe)
 Two-electron integral symmetry not used.
 Closed shell SCF:
 Using DIIS extrapolation, IDIIS=  1040.
 NGot=   671088640 LenX=   670378728 LenY=   670027672
 Requested convergence on RMS density matrix=1.00D-08 within 128 cycles.
 Requested convergence on MAX density matrix=1.00D-06.
 Requested convergence on             energy=1.00D-06.
 No special actions if energy rises.
 Fock matrices will be formed incrementally for  20 cycles.

 Cycle   1  Pass 1  IDiag  1:
 FoFJK:  IHMeth= 1 ICntrl=       0 DoSepK=F KAlg= 0 I1Cent=           0 FoldK=F
 IRaf= 870000000 NMat=       1 IRICut=       1 DoRegI=T DoRafI=F ISym2E= 0 IDoP0=0 IntGTp=1.
 FoFCou: FMM=F IPFlag=           0 FMFlag=      100000 FMFlg1=           0
         NFxFlg=           0 DoJE=F BraDBF=F KetDBF=F FulRan=T
         wScrn=  0.000000 ICntrl=         0 IOpCl=  0 I1Cent=           0 NGrid=           0
         NMat0=    1 NMatS0=      1 NMatT0=    0 NMatD0=    1 NMtDS0=    0 NMtDT0=    0
 Symmetry not used in FoFCou.
 E= -480.473571932187    
 DIIS: error= 1.75D-02 at cycle   1 NSaved=   1.
 NSaved= 1 IEnMin= 1 EnMin= -480.473571932187     IErMin= 1 ErrMin= 1.75D-02
 ErrMax= 1.75D-02  0.00D+00 EMaxC= 1.00D-01 BMatC= 4.94D-01 BMatP= 4.94D-01
 IDIUse=3 WtCom= 8.25D-01 WtEn= 1.75D-01
 Coeff-Com:  0.100D+01
 Coeff-En:   0.100D+01
 Coeff:      0.100D+01
 Gap=     0.307 Goal=   None    Shift=    0.000
 GapD=    0.307 DampG=1.000 DampE=0.500 DampFc=0.5000 IDamp=-1.
 Damping current iteration by 5.00D-01
 RMSDP=2.42D-02 MaxDP=2.82D+00              OVMax= 5.80D-01

 Cycle   2  Pass 1  IDiag  1:
 RMSU=  1.21D-02    CP:  1.04D+00
 E= -480.565496041692     Delta-E=       -0.091924109505 Rises=F Damp=T
 DIIS: error= 4.24D-03 at cycle   2 NSaved=   2.
 NSaved= 2 IEnMin= 2 EnMin= -480.565496041692     IErMin= 2 ErrMin= 4.24D-03
 ErrMax= 4.24D-03  0.00D+00 EMaxC= 1.00D-01 BMatC= 5.34D-02 BMatP= 4.94D-01
 IDIUse=3 WtCom= 9.58D-01 WtEn= 4.24D-02
 Coeff-Com:  0.961D-01 0.904D+00
 Coeff-En:   0.326D+00 0.674D+00
 Coeff:      0.106D+00 0.894D+00
 Gap=     0.123 Goal=   None    Shift=    0.000
 RMSDP=1.21D-02 MaxDP=1.73D+00 DE=-9.19D-02 OVMax= 5.20D-01

 Cycle   3  Pass 1  IDiag  1:
 RMSU=  2.61D-03    CP:  8.18D-01  3.29D-02
 E= -480.814378192488     Delta-E=       -0.248882150796 Rises=F Damp=F
 DIIS: error= 5.72D-03 at cycle   3 NSaved=   3.
 NSaved= 3 IEnMin= 3 EnMin= -480.814378192488     IErMin= 2 ErrMin= 4.24D-03
 ErrMax= 5.72D-03  0.00D+00 EMaxC= 1.00D-01 BMatC= 3.94D-02 BMatP= 5.34D-02
 IDIUse=3 WtCom= 9.43D-01 WtEn= 5.72D-02
 Coeff-Com: -0.508D-01 0.457D+00 0.594D+00
 Coeff-En:   0.000D+00 0.000D+00 0.100D+01
 Coeff:     -0.478D-01 0.430D+00 0.617D+00
 Gap=     0.213 Goal=   None    Shift=    0.000
 RMSDP=6.68D-04 MaxDP=7.84D-02 DE=-2.49D-01 OVMax= 4.27D-02

 Cycle   4  Pass 1  IDiag  1:
 RMSU=  6.38D-04    CP:  8.25D-01  3.56D-02  1.07D+00
 E= -480.845009541224     Delta-E=       -0.030631348736 Rises=F Damp=F
 DIIS: error= 1.64D-03 at cycle   4 NSaved=   4.
 NSaved= 4 IEnMin= 4 EnMin= -480.845009541224     IErMin= 4 ErrMin= 1.64D-03
 ErrMax= 1.64D-03  0.00D+00 EMaxC= 1.00D-01 BMatC= 3.40D-03 BMatP= 3.94D-02
 IDIUse=3 WtCom= 9.84D-01 WtEn= 1.64D-02
 Coeff-Com: -0.496D-01 0.126D+00 0.234D+00 0.689D+00
 Coeff-En:   0.000D+00 0.000D+00 0.000D+00 0.100D+01
 Coeff:     -0.488D-01 0.124D+00 0.230D+00 0.694D+00
 Gap=     0.206 Goal=   None    Shift=    0.000
 RMSDP=3.24D-04 MaxDP=4.86D-02 DE=-3.06D-02 OVMax= 1.51D-02

 Cycle   5  Pass 1  IDiag  1:
 RMSU=  2.95D-04    CP:  8.20D-01  3.62D-02  1.10D+00  1.16D+00
 E= -480.847980439107     Delta-E=       -0.002970897883 Rises=F Damp=F
 DIIS: error= 6.14D-04 at cycle   5 NSaved=   5.
 NSaved= 5 IEnMin= 5 EnMin= -480.847980439107     IErMin= 5 ErrMin= 6.14D-04
 ErrMax= 6.14D-04  0.00D+00 EMaxC= 1.00D-01 BMatC= 5.53D-04 BMatP= 3.40D-03
 IDIUse=3 WtCom= 9.94D-01 WtEn= 6.14D-03
 Coeff-Com: -0.199D-01 0.309D-01 0.418D-01 0.310D+00 0.637D+00
 Coeff-En:   0.000D+00 0.000D+00 0.000D+00 0.000D+00 0.100D+01
 Coeff:     -0.197D-01 0.307D-01 0.415D-01 0.308D+00 0.639D+00
 Gap=     0.207 Goal=   None    Shift=    0.000
 RMSDP=9.91D-05 MaxDP=8.78D-03 DE=-2.97D-03 OVMax= 9.03D-03

 Cycle   6  Pass 1  IDiag  1:
 RMSU=  7.91D-05    CP:  8.21D-01  3.55D-02  1.10D+00  1.24D+00  1.09D+00
 E= -480.848404005323     Delta-E=       -0.000423566216 Rises=F Damp=F
 DIIS: error= 3.22D-04 at cycle   6 NSaved=   6.
 NSaved= 6 IEnMin= 6 EnMin= -480.848404005323     IErMin= 6 ErrMin= 3.22D-04
 ErrMax= 3.22D-04  0.00D+00 EMaxC= 1.00D-01 BMatC= 9.18D-05 BMatP= 5.53D-04
 IDIUse=3 WtCom= 9.97D-01 WtEn= 3.22D-03
 Coeff-Com:  0.119D-03-0.462D-02-0.226D-01 0.136D-01 0.318D+00 0.696D+00
 Coeff-En:   0.000D+00 0.000D+00 0.000D+00 0.000D+00 0.000D+00 0.100D+01
 Coeff:      0.119D-03-0.460D-02-0.225D-01 0.135D-01 0.317D+00 0.697D+00
 Gap=     0.208 Goal=   None    Shift=    0.000
 RMSDP=6.72D-05 MaxDP=1.08D-02 DE=-4.24D-04 OVMax= 4.34D-03

 Cycle   7  Pass 1  IDiag  1:
 RMSU=  4.51D-05    CP:  8.22D-01  3.57D-02  1.10D+00  1.27D+00  1.24D+00
                    CP:  1.14D+00
 E= -480.848477633804     Delta-E=       -0.000073628481 Rises=F Damp=F
 DIIS: error= 9.95D-05 at cycle   7 NSaved=   7.
 NSaved= 7 IEnMin= 7 EnMin= -480.848477633804     IErMin= 7 ErrMin= 9.95D-05
 ErrMax= 9.95D-05  0.00D+00 EMaxC= 1.00D-01 BMatC= 1.35D-05 BMatP= 9.18D-05
 IDIUse=1 WtCom= 1.00D+00 WtEn= 0.00D+00
 Coeff-Com:  0.273D-02-0.607D-02-0.134D-01-0.271D-01 0.908D-01 0.344D+00
 Coeff-Com:  0.609D+00
 Coeff:      0.273D-02-0.607D-02-0.134D-01-0.271D-01 0.908D-01 0.344D+00
 Coeff:      0.609D+00
 Gap=     0.208 Goal=   None    Shift=    0.000
 RMSDP=1.73D-05 MaxDP=1.37D-03 DE=-7.36D-05 OVMax= 1.13D-03

 Cycle   8  Pass 1  IDiag  1:
 RMSU=  1.20D-05    CP:  8.22D-01  3.57D-02  1.10D+00  1.26D+00  1.27D+00
                    CP:  1.21D+00  1.07D+00
 E= -480.848487683955     Delta-E=       -0.000010050151 Rises=F Damp=F
 DIIS: error= 2.83D-05 at cycle   8 NSaved=   8.
 NSaved= 8 IEnMin= 8 EnMin= -480.848487683955     IErMin= 8 ErrMin= 2.83D-05
 ErrMax= 2.83D-05  0.00D+00 EMaxC= 1.00D-01 BMatC= 1.22D-06 BMatP= 1.35D-05
 IDIUse=1 WtCom= 1.00D+00 WtEn= 0.00D+00
 Coeff-Com:  0.827D-03-0.140D-02 0.191D-03-0.728D-02 0.197D-02 0.362D-01
 Coeff-Com:  0.230D+00 0.740D+00
 Coeff:      0.827D-03-0.140D-02 0.191D-03-0.728D-02 0.197D-02 0.362D-01
 Coeff:      0.230D+00 0.740D+00
 Gap=     0.209 Goal=   None    Shift=    0.000
 RMSDP=1.23D-05 MaxDP=1.96D-03 DE=-1.01D-05 OVMax= 4.57D-04

 Cycle   9  Pass 1  IDiag  1:
 RMSU=  6.50D-06    CP:  8.21D-01  3.56D-02  1.10D+00  1.25D+00  1.28D+00
                    CP:  1.22D+00  1.17D+00  1.25D+00
 E= -480.848488925523     Delta-E=       -0.000001241568 Rises=F Damp=F
 DIIS: error= 1.34D-05 at cycle   9 NSaved=   9.
 NSaved= 9 IEnMin= 9 EnMin= -480.848488925523     IErMin= 9 ErrMin= 1.34D-05
 ErrMax= 1.34D-05  0.00D+00 EMaxC= 1.00D-01 BMatC= 7.98D-08 BMatP= 1.22D-06
 IDIUse=1 WtCom= 1.00D+00 WtEn= 0.00D+00
 Coeff-Com: -0.663D-04 0.256D-03 0.148D-02 0.931D-03-0.545D-02-0.232D-01
 Coeff-Com:  0.538D-02 0.211D+00 0.809D+00
 Coeff:     -0.663D-04 0.256D-03 0.148D-02 0.931D-03-0.545D-02-0.232D-01
 Coeff:      0.538D-02 0.211D+00 0.809D+00
 Gap=     0.209 Goal=   None    Shift=    0.000
 RMSDP=4.11D-06 MaxDP=5.24D-04 DE=-1.24D-06 OVMax= 1.53D-04

 Cycle  10  Pass 1  IDiag  1:
 RMSU=  1.41D-06    CP:  8.21D-01  3.56D-02  1.10D+00  1.25D+00  1.28D+00
                    CP:  1.22D+00  1.22D+00  1.38D+00  1.15D+00
 E= -480.848489008451     Delta-E=       -0.000000082928 Rises=F Damp=F
 DIIS: error= 4.78D-06 at cycle  10 NSaved=  10.
 NSaved=10 IEnMin=10 EnMin= -480.848489008451     IErMin=10 ErrMin= 4.78D-06
 ErrMax= 4.78D-06  0.00D+00 EMaxC= 1.00D-01 BMatC= 2.29D-08 BMatP= 7.98D-08
 IDIUse=1 WtCom= 1.00D+00 WtEn= 0.00D+00
 Coeff-Com: -0.116D-03 0.161D-03 0.364D-03 0.104D-02-0.203D-02-0.145D-01
 Coeff-Com: -0.243D-01 0.547D-02 0.383D+00 0.651D+00
 Coeff:     -0.116D-03 0.161D-03 0.364D-03 0.104D-02-0.203D-02-0.145D-01
 Coeff:     -0.243D-01 0.547D-02 0.383D+00 0.651D+00
 Gap=     0.209 Goal=   None    Shift=    0.000
 RMSDP=1.36D-06 MaxDP=2.30D-04 DE=-8.29D-08 OVMax= 4.70D-05

 Cycle  11  Pass 1  IDiag  1:
 RMSU=  3.86D-07    CP:  8.21D-01  3.56D-02  1.10D+00  1.25D+00  1.28D+00
                    CP:  1.22D+00  1.23D+00  1.43D+00  1.23D+00  1.20D+00
 E= -480.848489031517     Delta-E=       -0.000000023065 Rises=F Damp=F
 DIIS: error= 7.49D-07 at cycle  11 NSaved=  11.
 NSaved=11 IEnMin=11 EnMin= -480.848489031517     IErMin=11 ErrMin= 7.49D-07
 ErrMax= 7.49D-07  0.00D+00 EMaxC= 1.00D-01 BMatC= 9.22D-10 BMatP= 2.29D-08
 IDIUse=1 WtCom= 1.00D+00 WtEn= 0.00D+00
 Coeff-Com: -0.241D-04 0.464D-04-0.428D-04 0.251D-04-0.254D-03-0.215D-02
 Coeff-Com: -0.446D-02-0.120D-01 0.286D-01 0.120D+00 0.870D+00
 Coeff:     -0.241D-04 0.464D-04-0.428D-04 0.251D-04-0.254D-03-0.215D-02
 Coeff:     -0.446D-02-0.120D-01 0.286D-01 0.120D+00 0.870D+00
 Gap=     0.209 Goal=   None    Shift=    0.000
[...]
    36  H    0.000000
 Sum of Mulliken charges =  -0.00000
 Mulliken charges with hydrogens summed into heavy atoms:
               1
     1  C    0.000000
     5  C    0.000000
     9  C    0.000000
    13  C    0.000000
    16  C    0.000000
    19  C    0.000000
    22  N    0.000000
    23  C    0.000000
    24  O    0.000000
    25  O    0.000000
    26  P    1.286126
    27  O   -0.619739
    28  O   -0.248011
    30  O   -0.181025
    32  O   -0.237351
    34  O    0.000000
         Mulliken charges condensed to fragments:
      1      0.000000
      2     -0.000000
      3      0.000000
 Electronic spatial extent (au):  <R**2>=          77303.9711
 Charge=             -0.0000 electrons
 Dipole moment (field-independent basis, Debye):
    X=              0.8115    Y=              4.9100    Z=              2.7026  Tot=              5.6631
 Quadrupole moment (field-independent basis, Debye-Ang):
   XX=             -8.2088   YY=             58.8339   ZZ=            -14.3119
   XY=             96.2407   XZ=             51.4485   YZ=             39.1224
 Traceless Quadrupole moment (field-independent basis, Debye-Ang):
   XX=            -20.3131   YY=             46.7295   ZZ=            -26.4163
   XY=             96.2407   XZ=             51.4485   YZ=             39.1224
 Octapole moment (field-independent basis, Debye-Ang**2):
  XXX=          -1233.7733  YYY=            300.4143  ZZZ=           -122.5895  XYY=           1135.3152
  XXY=           1497.1089  XXZ=            896.7797  XZZ=           -247.2278  YZZ=           -100.8744
  YYZ=            417.4889  XYZ=            730.7559
 Hexadecapole moment (field-independent basis, Debye-Ang**3):
 XXXX=         -54103.1259 YYYY=          -3815.5534 ZZZZ=           -673.3189 XXXY=          15915.6301
 XXXZ=          14180.6935 YYYX=           6148.5552 YYYZ=           3506.2181 ZZZX=          -2169.0323
 ZZZY=          -1065.0397 XXYY=          17961.8491 XXZZ=          -4471.3079 YYZZ=           -852.8427
 XXYZ=          12832.6237 YYXZ=           7764.4381 ZZXY=          -1717.7623
 N-N= 2.797997618410D+02 E-N=-2.087200291007D+03  KE= 6.424857075501D+02
 No NMR shielding tensors so no spin-rotation constants.
 Leave Link  601 at Thu May 19 13:43:30 2022, MaxMem=   671088640 cpu:               0.7 elap:               0.1
 (Enter /data0/hywu0/study/g16/l122.exe)
 CPIOFr:  IOpCl= 0 IRwI=-1 IRwCP=  731 ICalc=  5 LCPTot=      483070 Len1MO=     1266370 IndFrg=     8081290
 Counterpoise: doing calculation for fragment   3 using the basis set of the fragment.
 Leave Link  122 at Thu May 19 13:43:30 2022, MaxMem=   671088640 cpu:               0.1 elap:               0.0
 (Enter /data0/hywu0/study/g16/l301.exe)
 Basis read from rwf:  (5D, 7F)
 No pseudopotential information found on rwf file.
    39 basis functions,    58 primitive gaussians,    41 cartesian basis functions
     5 alpha electrons        5 beta electrons
       nuclear repulsion energy         9.0630106271 Hartrees.
 IExCor= 4336 DFT=T Ex+Corr=M062X ExCW=0 ScaHFX=  0.540000
 ScaDFX=  1.000000  1.000000  1.000000  1.000000 ScalE2=  1.000000  1.000000
 IRadAn=      5 IRanWt=     -1 IRanGd=            0 ICorTp=0 IEmpDi=131
 NAtoms=   36 NActive=    3 NUniq=    3 SFac= 1.00D+00 NAtFMM=   60 NAOKFM=F Big=F
 Integral buffers will be    131072 words long.
 Raffenetti 2 integral format.
 Two-electron integral symmetry is turned off.
 R6Disp:  Grimme-D3 Dispersion energy=       -0.0000000081 Hartrees.
 Nuclear repulsion after empirical dispersion term =        9.0630106190 Hartrees.
 No density basis found on file   718.
 Leave Link  301 at Thu May 19 13:43:30 2022, MaxMem=   671088640 cpu:               0.4 elap:               0.1
 (Enter /data0/hywu0/study/g16/l302.exe)
 NPDir=0 NMtPBC=     1 NCelOv=     1 NCel=       1 NClECP=     1 NCelD=      1
         NCelK=      1 NCelE2=     1 NClLst=     1 CellRange=     0.0.
 One-electron integrals computed using PRISM.
 NBasis=    39 RedAO= T EigKep=  3.09D-03  NBF=    39
 NBsUse=    39 1.00D-06 EigRej= -1.00D+00 NBFU=    39
 Precomputing XC quadrature grid using
 IXCGrd= 4 IRadAn=           5 IRanWt=          -1 IRanGd=           0 AccXCQ= 0.00D+00.
 Generated NRdTot=       0 NPtTot=           0 NUsed=           0 NTot=          32
 NSgBfM=    41    41    41    41    41 MxSgAt=     3 MxSgA2=     3.
 Leave Link  302 at Thu May 19 13:43:30 2022, MaxMem=   671088640 cpu:               0.9 elap:               0.1
 (Enter /data0/hywu0/study/g16/l303.exe)
 DipDrv:  MaxL=1.
 Leave Link  303 at Thu May 19 13:43:30 2022, MaxMem=   671088640 cpu:               0.3 elap:               0.0
 (Enter /data0/hywu0/study/g16/l401.exe)
 ExpMin= 8.45D-02 ExpMax= 8.59D+03 ExpMxC= 1.30D+03 IAcc=3 IRadAn=         5 AccDes= 0.00D+00
 Harris functional with IExCor= 1009 and IRadAn=       5 diagonalized for initial guess.
 HarFok:  IExCor= 1009 AccDes= 0.00D+00 IRadAn=         5 IDoV= 1 UseB2=F ITyADJ=14
 ICtDFT=  3500011 ScaDFX=  1.000000  1.000000  1.000000  1.000000
 FoFCou: FMM=F IPFlag=           0 FMFlag=      100000 FMFlg1=           0
         NFxFlg=           0 DoJE=T BraDBF=F KetDBF=T FulRan=T
         wScrn=  0.000000 ICntrl=       500 IOpCl=  0 I1Cent=   200000004 NGrid=           0
         NMat0=    1 NMatS0=      1 NMatT0=    0 NMatD0=    1 NMtDS0=    0 NMtDT0=    0
 Symmetry not used in FoFCou.
 Harris En= -76.4155019650712    
 JPrj=0 DoOrth=F DoCkMO=F.
 Leave Link  401 at Thu May 19 13:43:30 2022, MaxMem=   671088640 cpu:               1.0 elap:               0.1
 (Enter /data0/hywu0/study/g16/l502.exe)
 Keep R1 ints in memory in canonical form, NReq=7220253.
 FoFCou: FMM=F IPFlag=           0 FMFlag=           0 FMFlg1=           0
         NFxFlg=           0 DoJE=F BraDBF=F KetDBF=F FulRan=T
         wScrn=  0.000000 ICntrl=       600 IOpCl=  0 I1Cent=           0 NGrid=           0
         NMat0=    1 NMatS0=    780 NMatT0=    0 NMatD0=    1 NMtDS0=    0 NMtDT0=    0
 Symmetry not used in FoFCou.
 Two-electron integral symmetry not used.
 Closed shell SCF:
 Using DIIS extrapolation, IDIIS=  1040.
 NGot=   671088640 LenX=   670778867 LenY=   670776745
 Requested convergence on RMS density matrix=1.00D-08 within 128 cycles.
 Requested convergence on MAX density matrix=1.00D-06.
 Requested convergence on             energy=1.00D-06.
 No special actions if energy rises.
 Integral accuracy reduced to 1.0D-05 until final iterations.

 Cycle   1  Pass 0  IDiag  1:
 E= -76.3454876464000    
 DIIS: error= 6.98D-02 at cycle   1 NSaved=   1.
 NSaved= 1 IEnMin= 1 EnMin= -76.3454876464000     IErMin= 1 ErrMin= 6.98D-02
 ErrMax= 6.98D-02  0.00D+00 EMaxC= 1.00D-01 BMatC= 1.20D-01 BMatP= 1.20D-01
 IDIUse=3 WtCom= 3.02D-01 WtEn= 6.98D-01
 Coeff-Com:  0.100D+01
 Coeff-En:   0.100D+01
 Coeff:      0.100D+01
 Gap=     0.323 Goal=   None    Shift=    0.000
 GapD=    0.323 DampG=1.000 DampE=0.500 DampFc=0.5000 IDamp=-1.
 Damping current iteration by 5.00D-01
 RMSDP=7.91D-03 MaxDP=1.01D-01              OVMax= 1.68D-01

 Cycle   2  Pass 0  IDiag  1:
 E= -76.3767116491563     Delta-E=       -0.031224002756 Rises=F Damp=T
 DIIS: error= 1.10D-02 at cycle   2 NSaved=   2.
 NSaved= 2 IEnMin= 2 EnMin= -76.3767116491563     IErMin= 2 ErrMin= 1.10D-02
 ErrMax= 1.10D-02  0.00D+00 EMaxC= 1.00D-01 BMatC= 4.91D-03 BMatP= 1.20D-01
 IDIUse=3 WtCom= 8.90D-01 WtEn= 1.10D-01
 Coeff-Com:  0.846D-01 0.915D+00
 Coeff-En:   0.191D+00 0.809D+00
 Coeff:      0.963D-01 0.904D+00
 Gap=     0.456 Goal=   None    Shift=    0.000
 RMSDP=9.54D-04 MaxDP=1.42D-02 DE=-3.12D-02 OVMax= 1.01D-01

 Cycle   3  Pass 0  IDiag  1:
 E= -76.4207223039300     Delta-E=       -0.044010654774 Rises=F Damp=F
 DIIS: error= 2.22D-03 at cycle   3 NSaved=   3.
 NSaved= 3 IEnMin= 3 EnMin= -76.4207223039300     IErMin= 3 ErrMin= 2.22D-03
 ErrMax= 2.22D-03  0.00D+00 EMaxC= 1.00D-01 BMatC= 9.54D-05 BMatP= 4.91D-03
 IDIUse=3 WtCom= 9.78D-01 WtEn= 2.22D-02
 Coeff-Com: -0.202D-01 0.412D-01 0.979D+00
 Coeff-En:   0.000D+00 0.000D+00 0.100D+01
 Coeff:     -0.198D-01 0.402D-01 0.980D+00
 Gap=     0.460 Goal=   None    Shift=    0.000
 RMSDP=1.17D-04 MaxDP=1.05D-03 DE=-4.40D-02 OVMax= 3.38D-03

 Cycle   4  Pass 0  IDiag  1:
 E= -76.4208034883373     Delta-E=       -0.000081184407 Rises=F Damp=F
 DIIS: error= 4.23D-04 at cycle   4 NSaved=   4.
 NSaved= 4 IEnMin= 4 EnMin= -76.4208034883373     IErMin= 4 ErrMin= 4.23D-04
 ErrMax= 4.23D-04  0.00D+00 EMaxC= 1.00D-01 BMatC= 3.45D-06 BMatP= 9.54D-05
 IDIUse=3 WtCom= 9.96D-01 WtEn= 4.23D-03
 Coeff-Com: -0.205D-02-0.210D-02 0.166D+00 0.839D+00
 Coeff-En:   0.000D+00 0.000D+00 0.000D+00 0.100D+01
 Coeff:     -0.204D-02-0.209D-02 0.165D+00 0.839D+00
 Gap=     0.461 Goal=   None    Shift=    0.000
 RMSDP=2.25D-05 MaxDP=3.57D-04 DE=-8.12D-05 OVMax= 5.46D-04

 Cycle   5  Pass 0  IDiag  1:
 E= -76.4208056239307     Delta-E=       -0.000002135593 Rises=F Damp=F
 DIIS: error= 9.21D-05 at cycle   5 NSaved=   5.
 NSaved= 5 IEnMin= 5 EnMin= -76.4208056239307     IErMin= 5 ErrMin= 9.21D-05
 ErrMax= 9.21D-05  0.00D+00 EMaxC= 1.00D-01 BMatC= 8.81D-08 BMatP= 3.45D-06
 IDIUse=1 WtCom= 1.00D+00 WtEn= 0.00D+00
 Coeff-Com:  0.121D-02-0.185D-02-0.372D-01-0.700D-01 0.111D+01
 Coeff:      0.121D-02-0.185D-02-0.372D-01-0.700D-01 0.111D+01
 Gap=     0.461 Goal=   None    Shift=    0.000
 RMSDP=9.23D-06 MaxDP=1.04D-04 DE=-2.14D-06 OVMax= 2.10D-04

 Initial convergence to 1.0D-05 achieved.  Increase integral accuracy.
 Cycle   6  Pass 1  IDiag  1:
 E= -76.4208061341922     Delta-E=       -0.000000510262 Rises=F Damp=F
 DIIS: error= 1.01D-05 at cycle   1 NSaved=   1.
 NSaved= 1 IEnMin= 1 EnMin= -76.4208061341922     IErMin= 1 ErrMin= 1.01D-05
 ErrMax= 1.01D-05  0.00D+00 EMaxC= 1.00D-01 BMatC= 8.75D-09 BMatP= 8.75D-09
 IDIUse=1 WtCom= 1.00D+00 WtEn= 0.00D+00
 Coeff-Com:  0.100D+01
 Coeff:      0.100D+01
 Gap=     0.461 Goal=   None    Shift=    0.000
 RMSDP=9.23D-06 MaxDP=1.04D-04 DE=-5.10D-07 OVMax= 3.56D-05

 Cycle   7  Pass 1  IDiag  1:
 E= -76.4208061407928     Delta-E=       -0.000000006601 Rises=F Damp=F
 DIIS: error= 1.00D-05 at cycle   2 NSaved=   2.
 NSaved= 2 IEnMin= 2 EnMin= -76.4208061407928     IErMin= 2 ErrMin= 1.00D-05
 ErrMax= 1.00D-05  0.00D+00 EMaxC= 1.00D-01 BMatC= 1.21D-09 BMatP= 8.75D-09
 IDIUse=1 WtCom= 1.00D+00 WtEn= 0.00D+00
 Coeff-Com:  0.142D+00 0.858D+00
 Coeff:      0.142D+00 0.858D+00
 Gap=     0.461 Goal=   None    Shift=    0.000
 RMSDP=6.96D-07 MaxDP=1.09D-05 DE=-6.60D-09 OVMax= 1.93D-05

 Cycle   8  Pass 1  IDiag  1:
 E= -76.4208061411771     Delta-E=       -0.000000000384 Rises=F Damp=F
 DIIS: error= 5.35D-06 at cycle   3 NSaved=   3.
 NSaved= 3 IEnMin= 3 EnMin= -76.4208061411771     IErMin= 3 ErrMin= 5.35D-06
 ErrMax= 5.35D-06  0.00D+00 EMaxC= 1.00D-01 BMatC= 8.53D-10 BMatP= 1.21D-09
 IDIUse=1 WtCom= 1.00D+00 WtEn= 0.00D+00
 Coeff-Com: -0.523D-01 0.460D+00 0.593D+00
 Coeff:     -0.523D-01 0.460D+00 0.593D+00
 Gap=     0.461 Goal=   None    Shift=    0.000
 RMSDP=3.44D-07 MaxDP=4.56D-06 DE=-3.84D-10 OVMax= 8.32D-06

 Cycle   9  Pass 1  IDiag  1:
 E= -76.4208061417501     Delta-E=       -0.000000000573 Rises=F Damp=F
 DIIS: error= 5.95D-07 at cycle   4 NSaved=   4.
 NSaved= 4 IEnMin= 4 EnMin= -76.4208061417501     IErMin= 4 ErrMin= 5.95D-07
 ErrMax= 5.95D-07  0.00D+00 EMaxC= 1.00D-01 BMatC= 2.70D-12 BMatP= 8.53D-10
 IDIUse=1 WtCom= 1.00D+00 WtEn= 0.00D+00
 Coeff-Com:  0.248D-02-0.778D-01-0.586D-01 0.113D+01
 Coeff:      0.248D-02-0.778D-01-0.586D-01 0.113D+01
 Gap=     0.461 Goal=   None    Shift=    0.000
 RMSDP=6.21D-08 MaxDP=5.21D-07 DE=-5.73D-10 OVMax= 1.53D-06

 Cycle  10  Pass 1  IDiag  1:
 E= -76.4208061417559     Delta-E=       -0.000000000006 Rises=F Damp=F
 DIIS: error= 5.05D-08 at cycle   5 NSaved=   5.
 NSaved= 5 IEnMin= 5 EnMin= -76.4208061417559     IErMin= 5 ErrMin= 5.05D-08
 ErrMax= 5.05D-08  0.00D+00 EMaxC= 1.00D-01 BMatC= 1.07D-13 BMatP= 2.70D-12
 IDIUse=1 WtCom= 1.00D+00 WtEn= 0.00D+00
 Coeff-Com:  0.199D-02-0.267D-01-0.300D-01 0.124D+00 0.931D+00
 Coeff:      0.199D-02-0.267D-01-0.300D-01 0.124D+00 0.931D+00
 Gap=     0.461 Goal=   None    Shift=    0.000
 RMSDP=1.04D-08 MaxDP=9.73D-08 DE=-5.83D-12 OVMax= 2.64D-07

 Cycle  11  Pass 1  IDiag  1:
 E= -76.4208061417558     Delta-E=        0.000000000000 Rises=F Damp=F
 DIIS: error= 6.72D-09 at cycle   6 NSaved=   6.
 NSaved= 6 IEnMin= 5 EnMin= -76.4208061417559     IErMin= 6 ErrMin= 6.72D-09
 ErrMax= 6.72D-09  0.00D+00 EMaxC= 1.00D-01 BMatC= 1.64D-15 BMatP= 1.07D-13
 IDIUse=1 WtCom= 1.00D+00 WtEn= 0.00D+00
 Coeff-Com:  0.279D-04 0.918D-03 0.125D-03-0.248D-01-0.135D-02 0.103D+01
 Coeff:      0.279D-04 0.918D-03 0.125D-03-0.248D-01-0.135D-02 0.103D+01
 Gap=     0.461 Goal=   None    Shift=    0.000
 RMSDP=2.06D-09 MaxDP=1.57D-08 DE= 8.53D-14 OVMax= 4.50D-08

 SCF Done:  E(RM062X) =  -76.4208061418     A.U. after   11 cycles
            NFock= 11  Conv=0.21D-08     -V/T= 2.0031
 KE= 7.618139286221D+01 PE=-1.989712120236D+02 EE= 3.730600240065D+01
 Leave Link  502 at Thu May 19 13:43:31 2022, MaxMem=   671088640 cpu:               5.3 elap:               0.7
 (Enter /data0/hywu0/study/g16/l601.exe)
 Copying SCF densities to generalized density rwf, IOpCl= 0 IROHF=0.

 **********************************************************************

            Population analysis using the SCF density.

 **********************************************************************

 Alpha  occ. eigenvalues --  -19.62661  -1.13165  -0.60574  -0.47420  -0.39944
 Alpha virt. eigenvalues --    0.06137   0.13250   0.17411   0.17953   0.18946
 Alpha virt. eigenvalues --    0.23312   0.49982   0.53941   0.97862   1.00486
 Alpha virt. eigenvalues --    1.06012   1.18570   1.19779   1.32385   1.34103
 Alpha virt. eigenvalues --    1.69231   1.73632   1.75714   2.06161   2.10128
 Alpha virt. eigenvalues --    2.35213   2.41340   2.54259   2.87142   3.01332
 Alpha virt. eigenvalues --    5.05657   5.46775   5.91178   6.78275   6.80270
 Alpha virt. eigenvalues --    6.87162   6.91336   7.09895  49.95529
          Condensed to atoms (all electrons):
              34         35         36
    34  O    7.920347   0.315149   0.322883
    35  H    0.315149   0.426270  -0.024068
    36  H    0.322883  -0.024068   0.425457
 Mulliken charges:
               1
     1  C    0.000000
     2  H    0.000000
     3  H    0.000000
     4  H    0.000000
     5  C    0.000000
     6  H    0.000000
     7  H    0.000000
     8  H    0.000000
     9  C    0.000000
    10  H    0.000000
    11  H    0.000000
    12  H    0.000000
    13  C    0.000000
    14  H    0.000000
    15  H    0.000000
    16  C    0.000000
    17  H    0.000000
    18  H    0.000000
    19  C    0.000000
    20  H    0.000000
    21  H    0.000000
    22  N    0.000000
    23  C    0.000000
    24  O    0.000000
    25  O    0.000000
    26  P    0.000000
    27  O    0.000000
    28  O    0.000000
    29  H    0.000000
    30  O    0.000000
    31  H    0.000000
    32  O    0.000000
    33  H    0.000000
    34  O   -0.558379
    35  H    0.282650
    36  H    0.275729
 Sum of Mulliken charges =  -0.00000
 Mulliken charges with hydrogens summed into heavy atoms:
               1
     1  C    0.000000
     5  C    0.000000
     9  C    0.000000
    13  C    0.000000
    16  C    0.000000
    19  C    0.000000
    22  N    0.000000
    23  C    0.000000
    24  O    0.000000
    25  O    0.000000
    26  P    0.000000
    27  O    0.000000
    28  O    0.000000
    30  O    0.000000
    32  O    0.000000
    34  O   -0.000000
         Mulliken charges condensed to fragments:
      1      0.000000
      2      0.000000
      3     -0.000000
 Electronic spatial extent (au):  <R**2>=          20216.0949
 Charge=             -0.0000 electrons
 Dipole moment (field-independent basis, Debye):
    X=              0.3168    Y=              2.0354    Z=             -0.4967  Tot=              2.1190
 Quadrupole moment (field-independent basis, Debye-Ang):
   XX=              9.0602   YY=             28.7967   ZZ=            -13.6919
   XY=             45.8013   XZ=             -8.4052   YZ=              7.7306
 Traceless Quadrupole moment (field-independent basis, Debye-Ang):
   XX=              1.0052   YY=             20.7417   ZZ=            -21.7469
   XY=             45.8013   XZ=             -8.4052   YZ=              7.7306
 Octapole moment (field-independent basis, Debye-Ang**2):
  XXX=            148.0352  YYY=            291.9442  ZZZ=           -195.0407  XYY=            631.6353
  XXY=            990.6087  XXZ=           -159.9936  XZZ=           -277.0342  YZZ=            -46.9816
  YYZ=            131.6835  XYZ=            181.8044
 Hexadecapole moment (field-independent basis, Debye-Ang**3):
 XXXX=            190.6948 YYYY=           2435.1014 ZZZZ=          -2160.4155 XXXY=          20633.6637
 XXXZ=          -3581.5458 YYYX=           6348.0238 YYYZ=           1369.8593 ZZZX=          -4058.0417
 ZZZY=          -1260.0339 XXYY=          13531.3317 XXZZ=          -5760.1257 YYZZ=            -30.6324
 XXYZ=           4009.3065 YYXZ=           2936.5531 ZZXY=           -883.8601
 N-N= 9.063010618996D+00 E-N=-1.989712119802D+02  KE= 7.618139286221D+01
 No NMR shielding tensors so no spin-rotation constants.
 Leave Link  601 at Thu May 19 13:43:31 2022, MaxMem=   671088640 cpu:               0.6 elap:               0.1
 (Enter /data0/hywu0/study/g16/l122.exe)
 CPIOFr:  IOpCl= 0 IRwI=-1 IRwCP=  731 ICalc=  6 LCPTot=      483070 Len1MO=     1266370 IndFrg=     9347660
 Restoring MOs from calculation   1 to rwf.
 CPIOFr:  IOpCl= 0 IRwI=-2 IRwCP=  731 ICalc=  0 LCPTot=      483070 Len1MO=     1266370 IndFrg=     1749440
 Counterpoise corrected energy =   -1201.527198427139
                   BSSE energy =       0.004040640447
              sum of fragments =   -1201.403415033583
           complexation energy =     -80.21 kcal/mole (raw)
           complexation energy =     -77.68 kcal/mole (corrected)
 Leave Link  122 at Thu May 19 13:43:31 2022, MaxMem=   671088640 cpu:               0.2 elap:               0.0
 (Enter /data0/hywu0/study/g16/l9999.exe)
 1\1\GINC-LOCALHOST\SP\RM062X\6-311+G(2d,p)\C7H20N1O7P1\HYWU0\19-May-20
 22\0\\#p M062X/6-311+G(2d,p) nosymm em=GD3 counterpoise=3\\Title Card 
 Required\\0,1\C,0,16.967287,6.216146,4.124881\H,0,17.394386,5.534842,3
 .372155\H,0,16.055919,5.768556,4.54311\H,0,16.664324,7.1384,3.565767\C
 ,0,18.217966,5.318208,6.021801\H,0,18.639532,4.508746,5.402068\H,0,18.
 939994,5.529787,6.833079\H,0,17.290437,4.948861,6.487439\C,0,19.258313
 ,6.994536,4.571056\H,0,19.334945,8.107945,4.540024\H,0,20.142658,6.650
 343,5.131957\H,0,19.3452,6.66788,3.520586\C,0,17.358414,7.637505,6.073
 509\H,0,16.415911,7.255994,6.51702\H,0,17.052737,8.478905,5.390778\C,0
 ,18.302116,8.144619,7.170363\H,0,19.36749,7.920393,6.934984\H,0,18.101
 994,7.627006,8.126652\C,0,18.164007,9.656194,7.36625\H,0,18.945811,10.
 032441,8.050894\H,0,17.192243,9.918179,7.821258\N,0,17.966855,6.549838
 ,5.198936\C,0,18.305793,10.374112,6.013683\O,0,17.286132,10.894144,5.5
 43806\O,0,19.427762,10.327484,5.455567\P,0,18.008485,9.937255,2.287174
 \O,0,17.853772,8.50126,2.562932\O,0,19.394562,10.562891,2.735957\H,0,1
 9.438888,10.552152,3.803872\O,0,17.965335,10.19414,0.714489\H,0,18.084
 328,11.21166,0.571911\O,0,16.870053,10.878409,2.856066\H,0,17.012818,1
 0.972468,3.912939\O,0,21.306852,8.530347,6.112647\H,0,20.635082,9.2325
 95,5.900287\H,0,22.141633,8.975773,6.044107\\Version=ES64L-G16RevA.03\
 HF=-76.4208061\RMSD=2.065e-09\Dipole=-0.2534415,-3.2125291,1.8490242\Q
 uadrupole=8.5475954,-66.712503,58.1649076,-108.5435976,58.4975035,-3.8
 544062\PG=C01 [X(C7H20N1O7P1)]\\@


 ACCORDING TO HEN3RY, LIFE IS MUCH LIKE A SEWER........
 YOU GET OUT OF IT JUST WHAT YOU PUT INTO IT...........
                         TOM LEHRER - (THE 3 IS SILENT)
 Job cpu time:       0 days  3 hours 53 minutes  8.6 seconds.
 Elapsed time:       0 days  0 hours 29 minutes 15.1 seconds.
 File lengths (MBytes):  RWF=    261 Int=      0 D2E=      0 Chk=     89 Scr=      1
 Normal termination of Gaussian 16 at Thu May 19 13:43:31 2022.
