 Entering Gaussian System, Link 0=g16
 Initial command:
 /data0/hywu0/study/g16/l1.exe "/data0/hywu0/study/g16/scratch/Gau-2072307.inp" -scrdir="/data0/hywu0/study/g16/scratch/"
 Default is to use a total of  16 processors:
                               16 via shared-memory
                                1 via Linda
 Entering Link 1 = /data0/hywu0/study/g16/l1.exe PID=   2072308.
  
 Copyright (c) 1988,1990,1992,1993,1995,1998,2003,2009,2016,
            Gaussian, Inc.  All Rights Reserved.
  
 This is part of the Gaussian(R) 16 program.  It is based on
 the Gaussian(R) 09 system (copyright 2009, Gaussian, Inc.),
 the Gaussian(R) 03 system (copyright 2003, Gaussian, Inc.),
 the Gaussian(R) 98 system (copyright 1998, Gaussian, Inc.),
 the Gaussian(R) 94 system (copyright 1995, Gaussian, Inc.),
 the Gaussian 92(TM) system (copyright 1992, Gaussian, Inc.),
 the Gaussian 90(TM) system (copyright 1990, Gaussian, Inc.),
 the Gaussian 88(TM) system (copyright 1988, Gaussian, Inc.),
 the Gaussian 86(TM) system (copyright 1986, Carnegie Mellon
 University), and the Gaussian 82(TM) system (copyright 1983,
 Carnegie Mellon University). Gaussian is a federally registered
 trademark of Gaussian, Inc.
  
 This software contains proprietary and confidential information,
 including trade secrets, belonging to Gaussian, Inc.
  
 This software is provided under written license and may be
 used, copied, transmitted, or stored only in accord with that
 written license.
  
 The following legend is applicable only to US Government
 contracts under FAR:
  
                    RESTRICTED RIGHTS LEGEND
  
 Use, reproduction and disclosure by the US Government is
 subject to restrictions as set forth in subparagraphs (a)
 and (c) of the Commercial Computer Software - Restricted
 Rights clause in FAR 52.227-19.
  
 Gaussian, Inc.
 340 Quinnipiac St., Bldg. 40, Wallingford CT 06492
  
  
 ---------------------------------------------------------------
 Warning -- This program may not be used in any manner that
 competes with the business of Gaussian, Inc. or will provide
 assistance to any competitor of Gaussian, Inc.  The licensee
 of this program is prohibited from giving any competitor of
 Gaussian, Inc. access to this program.  By using this program,
 the user acknowledges that Gaussian, Inc. is engaged in the
 business of creating and licensing software in the field of
 computational chemistry and represents and warrants to the
 licensee that it is not a competitor of Gaussian, Inc. and that
 it will not use this program in any manner prohibited above.
 ---------------------------------------------------------------
  

 Cite this work as:
 Gaussian 16, Revision A.03,
 M. J. Frisch, G. W. Trucks, H. B. Schlegel, G. E. Scuseria, 
 M. A. Robb, J. R. Cheeseman, G. Scalmani, V. Barone, 
 G. A. Petersson, H. Nakatsuji, X. Li, M. Caricato, A. V. Marenich, 
 J. Bloino, B. G. Janesko, R. Gomperts, B. Mennucci, H. P. Hratchian, 
 J. V. Ortiz, A. F. Izmaylov, J. L. Sonnenberg, D. Williams-Young, 
 F. Ding, F. Lipparini, F. Egidi, J. Goings, B. Peng, A. Petrone, 
 T. Henderson, D. Ranasinghe, V. G. Zakrzewski, J. Gao, N. Rega, 
 G. Zheng, W. Liang, M. Hada, M. Ehara, K. Toyota, R. Fukuda, 
 J. Hasegawa, M. Ishida, T. Nakajima, Y. Honda, O. Kitao, H. Nakai, 
 T. Vreven, K. Throssell, J. A. Montgomery, Jr., J. E. Peralta, 
 F. Ogliaro, M. J. Bearpark, J. J. Heyd, E. N. Brothers, K. N. Kudin, 
 V. N. Staroverov, T. A. Keith, R. Kobayashi, J. Normand, 
 K. Raghavachari, A. P. Rendell, J. C. Burant, S. S. Iyengar, 
 J. Tomasi, M. Cossi, J. M. Millam, M. Klene, C. Adamo, R. Cammi, 
 J. W. Ochterski, R. L. Martin, K. Morokuma, O. Farkas, 
 J. B. Foresman, and D. J. Fox, Gaussian, Inc., Wallingford CT, 2016.
 
 ******************************************
 Gaussian 16:  ES64L-G16RevA.03 25-Dec-2016
                12-May-2022 
 ******************************************
 %nproc=22
 Will use up to   22 processors via shared memory.
 %mem=80000MB
 ---------------------------------------------------
 #p M062X/6-311+G(2d,p) nosymm em=GD3 counterpoise=4
 ---------------------------------------------------
 1/38=1,62=4,172=1/1;
 2/12=2,15=1,17=6,18=5,40=1/2;
 1/38=1,53=2,62=4,63=1/22;
 3/5=4,6=6,7=112,11=2,25=1,30=1,74=-55,124=31/1,2,3;
 4//1;
 5/5=2,38=5/2;
 6/7=2,8=2,9=2,10=2,28=1/1;
 1/53=2,62=4,63=1/22;
 3/5=7,6=11,7=112,11=2,25=1,30=1,74=-55,82=7,124=31/1,2,3;
 4//1;
 5/5=2,38=5/2;
 6/7=2,8=2,9=2,10=2,28=1/1;
 1/53=2,62=4,63=1/22(-4);
 99/5=1,9=1/99;
 Leave Link    1 at Thu May 12 18:09:05 2022, MaxMem= 10485760000 cpu:               0.7 elap:               0.0
 (Enter /data0/hywu0/study/g16/l101.exe)
 -------------------
 Title Card Required
 -------------------
 Symbolic Z-matrix:
 Charge =  0 Multiplicity = 1 in supermolecule
 Charge =  0 Multiplicity = 1 in fragment      1.
 Charge =  0 Multiplicity = 1 in fragment      2.
 Charge =  0 Multiplicity = 1 in fragment      3.
 Charge =  0 Multiplicity = 1 in fragment      4.
 C                     10.63575   8.30832   11.42899    
 C                     11.64881   9.26019   11.41839    
 C                     9.69295   10.32786   11.74135    
 N                     9.43663   8.98832   11.63256    
 H                     10.68691   7.2397    11.27208    
 H                     12.70019   9.13816   11.24727    
 H                     8.94435   11.11303   11.86216    
 C                     8.10557   8.40914   11.62411    
 H                     8.13279   7.34664   11.29553    
 H                     7.63554   8.46868   12.61819    
 H                     7.45182   8.93938   10.8854    
 N                     11.04925   10.50596   11.62386    
 C                     11.72191   11.8046   11.5446    
 H                     12.44543   11.87392   12.38983    
 H                     10.96277   12.61504   11.68989    
 C                     12.46014   12.01639   10.20199    
 H                     13.32301   12.69012   10.38407    
 H                     12.90531   11.05476   9.85635    
 C                     11.58933   12.60847   9.09627    
 H                     12.18212   12.75152   8.17453    
 H                     11.21703   13.61072   9.37109    
 S                     10.18384   11.53271   8.74442    
 O                     9.58356   11.85543   7.45055    
 O                     10.74559   10.16272   8.85674    
 O                     9.264     11.83812   9.89813    
 P                     9.12348   7.01634   8.18517    
 O                     9.61368   6.209     9.30061    
 O                     7.90164   7.89405   8.69607    
 H                     7.64227   8.65473   8.04182    
 O                     10.12297   7.95605   7.40251    
 H                     10.41044   8.77795   8.01208    
 O                     8.56627   6.09098   7.00999    
 H                     8.52484   6.64634   6.14667    
 O                     7.11141   10.24222   7.38556    
 H                     7.89381   10.78126   7.16761    
 H                     6.85186   10.55493   8.26357    
 O                     6.71101   11.18254   10.14418    
 H                     7.66716   11.44222   10.05576    
 H                     6.23457   12.00154   10.09009    
 
 ITRead=  0  0  0  0  0  0  0  0  0  0  0  0  0  0  0  0  0  0  0  0
 ITRead=  0  0  0  0  0  0  0  0  0  0  0  0  0  0  0  0  0  0  0
 MicOpt= -1 -1 -1 -1 -1 -1 -1 -1 -1 -1 -1 -1 -1 -1 -1 -1 -1 -1 -1 -1
 MicOpt= -1 -1 -1 -1 -1 -1 -1 -1 -1 -1 -1 -1 -1 -1 -1 -1 -1 -1 -1
 NAtoms=     39 NQM=       39 NQMF=       0 NMMI=      0 NMMIF=      0
                NMic=       0 NMicF=      0.
                    Isotopes and Nuclear Properties:
 (Nuclear quadrupole moments (NQMom) in fm**2, nuclear magnetic moments (NMagM)
  in nuclear magnetons)

  Atom         1           2           3           4           5           6           7           8           9          10
 IAtWgt=          12          12          12          14           1           1           1          12           1           1
 AtmWgt=  12.0000000  12.0000000  12.0000000  14.0030740   1.0078250   1.0078250   1.0078250  12.0000000   1.0078250   1.0078250
 NucSpn=           0           0           0           2           1           1           1           0           1           1
 AtZEff=  -0.0000000  -0.0000000  -0.0000000  -0.0000000  -0.0000000  -0.0000000  -0.0000000  -0.0000000  -0.0000000  -0.0000000
 NQMom=    0.0000000   0.0000000   0.0000000   2.0440000   0.0000000   0.0000000   0.0000000   0.0000000   0.0000000   0.0000000
 NMagM=    0.0000000   0.0000000   0.0000000   0.4037610   2.7928460   2.7928460   2.7928460   0.0000000   2.7928460   2.7928460
 AtZNuc=   6.0000000   6.0000000   6.0000000   7.0000000   1.0000000   1.0000000   1.0000000   6.0000000   1.0000000   1.0000000

  Atom        11          12          13          14          15          16          17          18          19          20
 IAtWgt=           1          14          12           1           1          12           1           1          12           1
 AtmWgt=   1.0078250  14.0030740  12.0000000   1.0078250   1.0078250  12.0000000   1.0078250   1.0078250  12.0000000   1.0078250
 NucSpn=           1           2           0           1           1           0           1           1           0           1
 AtZEff=  -0.0000000  -0.0000000  -0.0000000  -0.0000000  -0.0000000  -0.0000000  -0.0000000  -0.0000000  -0.0000000  -0.0000000
 NQMom=    0.0000000   2.0440000   0.0000000   0.0000000   0.0000000   0.0000000   0.0000000   0.0000000   0.0000000   0.0000000
 NMagM=    2.7928460   0.4037610   0.0000000   2.7928460   2.7928460   0.0000000   2.7928460   2.7928460   0.0000000   2.7928460
 AtZNuc=   1.0000000   7.0000000   6.0000000   1.0000000   1.0000000   6.0000000   1.0000000   1.0000000   6.0000000   1.0000000

  Atom        21          22          23          24          25          26          27          28          29          30
 IAtWgt=           1          32          16          16          16          31          16          16           1          16
 AtmWgt=   1.0078250  31.9720718  15.9949146  15.9949146  15.9949146  30.9737634  15.9949146  15.9949146   1.0078250  15.9949146
 NucSpn=           1           0           0           0           0           1           0           0           1           0
 AtZEff=  -0.0000000  -0.0000000  -0.0000000  -0.0000000  -0.0000000  -0.0000000  -0.0000000  -0.0000000  -0.0000000  -0.0000000
 NQMom=    0.0000000   0.0000000   0.0000000   0.0000000   0.0000000   0.0000000   0.0000000   0.0000000   0.0000000   0.0000000
 NMagM=    2.7928460   0.0000000   0.0000000   0.0000000   0.0000000   1.1316000   0.0000000   0.0000000   2.7928460   0.0000000
 AtZNuc=   1.0000000  16.0000000   8.0000000   8.0000000   8.0000000  15.0000000   8.0000000   8.0000000   1.0000000   8.0000000

  Atom        31          32          33          34          35          36          37          38          39
 IAtWgt=           1          16           1          16           1           1          16           1           1
 AtmWgt=   1.0078250  15.9949146   1.0078250  15.9949146   1.0078250   1.0078250  15.9949146   1.0078250   1.0078250
 NucSpn=           1           0           1           0           1           1           0           1           1
 AtZEff=  -0.0000000  -0.0000000  -0.0000000  -0.0000000  -0.0000000  -0.0000000  -0.0000000  -0.0000000  -0.0000000
 NQMom=    0.0000000   0.0000000   0.0000000   0.0000000   0.0000000   0.0000000   0.0000000   0.0000000   0.0000000
 NMagM=    2.7928460   0.0000000   2.7928460   0.0000000   2.7928460   2.7928460   0.0000000   2.7928460   2.7928460
 AtZNuc=   1.0000000   8.0000000   1.0000000   8.0000000   1.0000000   1.0000000   8.0000000   1.0000000   1.0000000
 Leave Link  101 at Thu May 12 18:09:05 2022, MaxMem= 10485760000 cpu:               3.2 elap:               0.2
 (Enter /data0/hywu0/study/g16/l202.exe)
                          Input orientation:                          
 ---------------------------------------------------------------------
 Center     Atomic      Atomic             Coordinates (Angstroms)
 Number     Number       Type             X           Y           Z
 ---------------------------------------------------------------------
      1          6           0       10.635749    8.308323   11.428991
      2          6           0       11.648809    9.260190   11.418389
      3          6           0        9.692951   10.327859   11.741352
      4          7           0        9.436633    8.988320   11.632562
      5          1           0       10.686906    7.239698   11.272076
      6          1           0       12.700190    9.138157   11.247265
      7          1           0        8.944350   11.113031   11.862163
      8          6           0        8.105570    8.409136   11.624112
      9          1           0        8.132789    7.346635   11.295528
     10          1           0        7.635536    8.468678   12.618194
     11          1           0        7.451821    8.939376   10.885395
     12          7           0       11.049246   10.505961   11.623857
     13          6           0       11.721913   11.804598   11.544596
     14          1           0       12.445425   11.873919   12.389833
     15          1           0       10.962768   12.615042   11.689885
     16          6           0       12.460140   12.016393   10.201987
     17          1           0       13.323012   12.690122   10.384073
     18          1           0       12.905313   11.054755    9.856351
     19          6           0       11.589332   12.608470    9.096266
     20          1           0       12.182124   12.751518    8.174532
     21          1           0       11.217033   13.610724    9.371088
     22         16           0       10.183836   11.532708    8.744422
     23          8           0        9.583560   11.855427    7.450546
     24          8           0       10.745595   10.162721    8.856735
     25          8           0        9.264002   11.838116    9.898127
     26         15           0        9.123484    7.016339    8.185167
     27          8           0        9.613684    6.209003    9.300606
     28          8           0        7.901637    7.894052    8.696073
     29          1           0        7.642268    8.654725    8.041825
     30          8           0       10.122974    7.956047    7.402511
     31          1           0       10.410441    8.777952    8.012083
     32          8           0        8.566274    6.090978    7.009991
     33          1           0        8.524840    6.646337    6.146667
     34          8           0        7.111406   10.242216    7.385558
     35          1           0        7.893805   10.781262    7.167611
     36          1           0        6.851857   10.554925    8.263571
     37          8           0        6.711013   11.182545   10.144183
     38          1           0        7.667157   11.442221   10.055757
     39          1           0        6.234570   12.001537   10.090090
 ---------------------------------------------------------------------
                    Distance matrix (angstroms):
                    1          2          3          4          5
     1  C    0.000000
     2  C    1.390127   0.000000
     3  C    2.250547   2.251578   0.000000
     4  N    1.393455   2.239086   1.368174   0.000000
     5  H    1.081295   2.242555   3.277942   2.179636   0.000000
     6  H    2.232390   1.072184   3.271544   3.289637   2.767323
     7  H    3.303764   3.308180   1.091556   2.193047   4.288055
     8  C    2.539693   3.649816   2.492995   1.451638   2.855663
     9  H    2.684672   4.004895   3.394195   2.123377   2.556462
    10  H    3.231284   4.262908   2.908326   2.117888   3.554333
    11  H    3.291067   4.242843   2.771861   2.121352   3.674806
    12  N    2.244675   1.397726   1.372975   2.214459   3.305074
    13  C    3.662930   2.548585   2.517173   3.627901   4.688691
    14  H    4.112374   2.899979   3.222878   4.237095   5.081119
    15  H    4.326989   3.435025   2.616542   3.935160   5.398610
    16  C    4.310884   3.120024   3.588611   4.511914   5.206368
    17  H    5.245322   3.954390   4.538704   5.510536   6.119210
    18  H    3.894484   2.690581   3.794849   4.410989   4.634681
    19  C    4.984194   4.075141   3.974157   4.916543   5.862784
    20  H    5.720556   4.795457   4.979188   5.801496   6.496970
    21  H    5.717369   4.827527   4.326451   5.445246   6.669690
    22  S    4.219928   3.802707   3.267142   3.920915   5.007200
    23  O    5.432962   5.171488   4.555924   5.072588   6.093145
    24  O    3.172910   2.862242   3.075117   3.286003   3.792279
    25  O    4.084688   3.826775   2.421229   3.340569   5.005781
    26  P    3.805071   4.676094   4.892536   3.983880   3.467446
    27  O    3.159396   4.235148   4.788371   3.632350   2.469986
    28  O    3.887908   4.828937   4.290215   3.489499   3.849895
    29  H    4.533632   5.274480   4.548756   4.027955   4.659039
    30  O    4.074258   4.489570   4.963462   4.407945   3.975514
    31  H    3.456382   3.656368   4.101762   3.755053   3.615275
    32  O    5.359749   6.243388   6.450298   5.524516   4.897143
    33  H    5.926304   6.662016   6.798425   6.034177   5.594321
    34  O    5.701779   6.149482   5.064055   5.001598   6.074894
    35  H    5.638532   5.872208   4.935748   5.052796   6.098420
    36  H    5.420788   5.885573   4.496480   4.526082   5.894865
    37  O    5.031445   5.449851   3.489039   3.802486   5.711910
    38  H    4.529859   4.740420   2.861271   3.411596   5.315968
    39  H    5.899395   6.212354   4.181897   4.659603   6.625368
                    6          7          8          9         10
     6  H    0.000000
     7  H    4.287722   0.000000
     8  C    4.667335   2.840998   0.000000
     9  H    4.906428   3.894284   1.112482   0.000000
    10  H    5.289458   3.045846   1.101216   1.804352   0.000000
    11  H    5.264584   2.811849   1.119931   1.780098   1.804965
    12  N    2.176769   2.203613   3.614126   4.312176   4.097883
    13  C    2.855755   2.879925   4.961192   5.728637   5.383257
    14  H    2.975695   3.621452   5.605835   6.347648   5.897698
    15  H    3.911940   2.521850   5.085032   5.993364   5.396718
    16  C    3.071559   3.991620   5.830697   6.459755   6.457642
    17  H    3.708027   4.883098   6.861941   7.504800   7.426929
    18  H    2.376987   4.440260   5.758629   6.212759   6.487382
    19  C    4.231297   4.108826   6.013402   6.668684   6.721187
    20  H    4.771421   5.173630   6.882890   7.439791   7.665528
    21  H    5.071849   4.196309   6.466362   7.242571   7.057723
    22  S    4.281371   3.381237   4.729536   5.313957   5.557717
    23  O    5.613556   4.519082   5.610707   6.100642   6.478383
    24  O    3.253430   3.630450   4.207513   4.550253   5.166316
    25  O    4.573548   2.117868   4.009849   4.837951   4.626422
    26  P    5.164434   5.507747   3.847385   3.280993   4.896428
    27  O    4.679310   5.573067   3.537467   2.732576   4.474996
    28  O    5.575167   4.633919   2.979985   2.666508   3.972913
    29  H    6.007589   4.725851   3.620462   3.540945   4.580154
    30  O    4.777192   5.589651   4.700758   4.414499   5.801163
    31  H    3.979837   4.735518   4.300606   4.244688   5.386279
    32  O    6.658007   6.993392   5.184228   4.486693   6.162116
    33  H    7.046901   7.265964   5.769372   5.211035   6.781773
    34  O    6.882313   4.915078   4.723757   4.971466   5.549831
    35  H    6.514960   4.822088   5.052942   5.375265   5.926517
    36  H    6.716596   4.199985   4.179646   4.596376   4.891761
    37  O    6.423905   2.818525   3.439008   4.249853   3.786892
    38  H    5.662139   2.236670   3.442608   4.304378   3.925435
    39  H    7.165350   3.357468   4.331190   5.169568   4.564549
                   11         12         13         14         15
    11  H    0.000000
    12  N    3.992616   0.000000
    13  C    5.184374   1.464657   0.000000
    14  H    5.984226   2.099368   1.114765   0.000000
    15  H    5.146307   2.111886   1.119924   1.799295   0.000000
    16  C    5.917630   2.508733   1.546750   2.192529   2.194161
    17  H    6.985006   3.387866   2.166676   2.336540   2.698432
    18  H    5.939220   2.621114   2.193826   2.702047   3.093513
    19  C    5.812248   3.331809   2.580331   3.481385   2.668236
    20  H    6.652591   4.268932   3.530692   4.313730   3.723327
    21  H    6.188008   3.839619   2.870737   3.693001   2.536307
    22  S    4.332787   3.177151   3.206334   4.303514   3.233254
    23  O    4.984561   4.624480   4.619132   5.708517   4.522303
    24  O    4.057214   2.804814   3.297507   4.277897   3.753369
    25  O    3.558285   2.817779   2.958599   4.041204   2.588400
    26  P    3.712649   5.264087   6.400392   7.232606   6.856492
    27  O    3.826244   5.091383   6.386768   7.046514   6.968932
    28  O    2.467421   5.030053   6.164492   7.080199   6.373475
    29  H    2.864121   5.278781   6.231742   7.234549   6.325992
    30  O    4.498052   5.017948   5.875782   6.754027   6.386945
    31  H    4.127398   4.054503   4.833135   5.735056   5.343646
    32  O    4.937017   6.851641   7.947714   8.799598   8.379022
    33  H    5.372610   7.160233   8.121981   9.037462   8.502717
    34  O    3.749951   5.791315   6.402766   7.493796   6.244239
    35  H    4.172507   5.467241   5.904204   7.013041   5.764742
    36  H    3.137502   5.376987   6.003687   7.074870   5.734396
    37  O    2.475883   4.633300   5.239964   6.197130   4.745383
    38  H    2.645544   3.843702   4.334629   5.335365   3.860950
    39  H    3.389844   5.269753   5.680256   6.624185   5.029074
                   16         17         18         19         20
    16  C    0.000000
    17  H    1.109781   0.000000
    18  H    1.114626   1.768442   0.000000
    19  C    1.526919   2.161194   2.173377   0.000000
    20  H    2.174460   2.487462   2.496101   1.105196   0.000000
    21  H    2.185772   2.511731   3.101410   1.103923   1.761074
    22  S    2.745907   3.725921   2.978466   1.804571   2.409030
    23  O    3.983849   4.825536   4.178877   2.701590   2.842476
    24  O    2.861026   3.919642   2.541523   2.598260   3.038237
    25  O    3.215496   4.175838   3.724855   2.577515   3.510060
    26  P    6.340456   7.393446   5.779610   6.179194   6.499821
    27  O    6.529975   7.545722   5.884300   6.700606   7.118246
    28  O    6.327829   7.432559   6.031008   5.998749   6.495348
    29  H    6.259313   7.351286   6.062367   5.685355   6.116504
    30  O    5.457639   6.445263   4.833708   5.163725   5.275667
    31  H    4.414119   5.423512   3.848317   4.151880   4.353674
    32  O    7.775704   8.806798   7.181094   7.481252   7.667680
    33  H    7.795493   8.803715   7.237710   7.323816   7.400081
    34  O    6.299915   7.318974   6.350937   5.345793   5.712378
    35  H    5.620000   6.592849   5.693798   4.551408   4.825503
    36  H    6.111152   7.136627   6.279419   5.230114   5.765821
    37  O    5.809570   6.785932   6.202300   5.189353   6.022811
    38  H    4.829466   5.801185   5.256251   4.202882   5.063417
    39  H    6.226593   7.127874   6.741650   5.479921   6.293269
                   21         22         23         24         25
    21  H    0.000000
    22  S    2.403821   0.000000
    23  O    3.072098   1.462393   0.000000
    24  O    3.517888   1.484942   2.488563   0.000000
    25  O    2.689654   1.506786   2.468414   2.467096   0.000000
    26  P    7.019635   4.672762   4.916107   3.603050   5.118936
    27  O    7.573716   5.382959   5.941863   4.136439   5.671527
    28  O    6.642878   4.295415   4.480256   3.641534   4.342420
    29  H    6.253624   3.903331   3.789818   3.545246   4.026147
    30  O    6.086677   3.820593   3.936806   2.715112   4.694294
    31  H    5.084601   2.859432   3.235724   1.656306   3.773074
    32  O    8.315521   5.936092   5.870079   4.973831   6.469756
    33  H    8.133110   5.777302   5.473172   4.963988   6.447820
    34  O    5.669687   3.598848   2.952663   3.921481   3.673359
    35  H    4.889275   2.880147   2.022166   3.371712   3.232661
    36  H    5.442358   3.505619   3.132813   3.958139   3.183834
    37  O    5.176673   3.760644   3.994994   4.356078   2.647276
    38  H    4.215779   2.839271   3.260439   3.542817   1.652723
    39  H    5.285015   4.198491   4.266647   5.025112   3.039904
                   26         27         28         29         30
    26  P    0.000000
    27  O    1.461606   0.000000
    28  O    1.588809   2.477086   0.000000
    29  H    2.213336   3.384164   1.036309   0.000000
    30  O    1.579425   2.629506   2.571281   2.655330   0.000000
    31  H    2.188492   2.982384   2.746492   2.771074   1.062894
    32  O    1.596188   2.521491   2.556500   2.913978   2.460868
    33  H    2.156562   3.365141   2.905967   2.898996   2.417957
    34  O    3.885115   5.118165   2.802818   1.797951   3.781058
    35  H    4.089276   5.330404   3.266839   2.312938   3.606413
    36  H    4.205714   5.252634   2.892981   2.069947   4.265653
    37  O    5.197599   5.820072   3.785339   3.417165   5.437696
    38  H    5.020799   5.634340   3.806997   3.438993   5.022366
    39  H    6.068505   6.752418   4.646916   4.168711   6.221636
                   31         32         33         34         35
    31  H    0.000000
    32  O    3.409541   0.000000
    33  H    3.402800   1.027360   0.000000
    34  O    3.663364   4.414801   4.057461   0.000000
    35  H    3.325634   4.740867   4.305594   0.974792   0.000000
    36  H    3.985524   4.943431   4.749444   0.967502   1.529056
    37  O    4.900376   6.260128   6.312471   2.941861   3.228003
    38  H    4.335959   6.222612   6.246368   2.979737   2.971468
    39  H    5.669878   7.061059   7.033782   3.343433   3.575334
                   36         37         38         39
    36  H    0.000000
    37  O    1.987573   0.000000
    38  H    2.159615   0.994717   0.000000
    39  H    2.410374   0.949037   1.538284   0.000000
 Symmetry turned off by external request.
 Stoichiometry    C7H19N2O9PS
 Framework group  C1[X(C7H19N2O9PS)]
 Deg. of freedom   111
 Full point group                 C1      NOp   1
 Rotational constants (GHZ):           0.3748264           0.2292074           0.2041998
 Leave Link  202 at Thu May 12 18:09:05 2022, MaxMem= 10485760000 cpu:               0.1 elap:               0.0
 (Enter /data0/hywu0/study/g16/l122.exe)
 Counterpoise: doing full-system calculation.
 Leave Link  122 at Thu May 12 18:09:05 2022, MaxMem= 10485760000 cpu:               0.0 elap:               0.0
 (Enter /data0/hywu0/study/g16/l301.exe)
 Standard basis: 6-311+G(2d,p) (5D, 7F)
 Ernie: Thresh=  0.10000D-02 Tol=  0.10000D-05 Strict=F.
   670 basis functions,  1020 primitive gaussians,   710 cartesian basis functions
    89 alpha electrons       89 beta electrons
       nuclear repulsion energy      2344.5809060779 Hartrees.
 IExCor= 4336 DFT=T Ex+Corr=M062X ExCW=0 ScaHFX=  0.540000
 ScaDFX=  1.000000  1.000000  1.000000  1.000000 ScalE2=  1.000000  1.000000
 IRadAn=      5 IRanWt=     -1 IRanGd=            0 ICorTp=0 IEmpDi=131
 NAtoms=   39 NActive=   39 NUniq=   39 SFac= 1.00D+00 NAtFMM=   60 NAOKFM=F Big=F
 Integral buffers will be    131072 words long.
 Raffenetti 2 integral format.
 Two-electron integral symmetry is turned off.
 R6Disp:  Grimme-D3 Dispersion energy=       -0.0035206249 Hartrees.
 Nuclear repulsion after empirical dispersion term =     2344.5773854531 Hartrees.
 Leave Link  301 at Thu May 12 18:09:05 2022, MaxMem= 10485760000 cpu:               1.0 elap:               0.0
 (Enter /data0/hywu0/study/g16/l302.exe)
 NPDir=0 NMtPBC=     1 NCelOv=     1 NCel=       1 NClECP=     1 NCelD=      1
         NCelK=      1 NCelE2=     1 NClLst=     1 CellRange=     0.0.
 One-electron integrals computed using PRISM.
 NBasis=   670 RedAO= T EigKep=  7.01D-06  NBF=   670
 NBsUse=   670 1.00D-06 EigRej= -1.00D+00 NBFU=   670
 Precomputing XC quadrature grid using
 IXCGrd= 4 IRadAn=           5 IRanWt=          -1 IRanGd=           0 AccXCQ= 0.00D+00.
 Generated NRdTot=       0 NPtTot=           0 NUsed=           0 NTot=          32
 NSgBfM=   708   708   708   708   708 MxSgAt=    39 MxSgA2=    39.
 Leave Link  302 at Thu May 12 18:09:06 2022, MaxMem= 10485760000 cpu:              21.6 elap:               1.0
 (Enter /data0/hywu0/study/g16/l303.exe)
 DipDrv:  MaxL=1.
 Leave Link  303 at Thu May 12 18:09:06 2022, MaxMem= 10485760000 cpu:               2.2 elap:               0.1
 (Enter /data0/hywu0/study/g16/l401.exe)
 ExpMin= 3.48D-02 ExpMax= 9.34D+04 ExpMxC= 3.17D+03 IAcc=3 IRadAn=         5 AccDes= 0.00D+00
 Harris functional with IExCor= 1009 and IRadAn=       5 diagonalized for initial guess.
 HarFok:  IExCor= 1009 AccDes= 0.00D+00 IRadAn=         5 IDoV= 1 UseB2=F ITyADJ=14
 ICtDFT=  3500011 ScaDFX=  1.000000  1.000000  1.000000  1.000000
 FoFCou: FMM=F IPFlag=           0 FMFlag=      100000 FMFlg1=           0
         NFxFlg=           0 DoJE=T BraDBF=F KetDBF=T FulRan=T
         wScrn=  0.000000 ICntrl=       500 IOpCl=  0 I1Cent=   200000004 NGrid=           0
         NMat0=    1 NMatS0=      1 NMatT0=    0 NMatD0=    1 NMtDS0=    0 NMtDT0=    0
 Symmetry not used in FoFCou.
 Harris En= -1803.59829217389    
 JPrj=0 DoOrth=F DoCkMO=F.
 Leave Link  401 at Thu May 12 18:09:10 2022, MaxMem= 10485760000 cpu:              81.5 elap:               3.7
 (Enter /data0/hywu0/study/g16/l502.exe)
 Two-electron integral symmetry not used.
 Closed shell SCF:
 Using DIIS extrapolation, IDIIS=  1040.
 NGot= 10485760000 LenX= 10484731249 LenY= 10484226439
 Requested convergence on RMS density matrix=1.00D-08 within 128 cycles.
 Requested convergence on MAX density matrix=1.00D-06.
 Requested convergence on             energy=1.00D-06.
 No special actions if energy rises.
 Fock matrices will be formed incrementally for  20 cycles.

 Cycle   1  Pass 1  IDiag  1:
 FoFJK:  IHMeth= 1 ICntrl=       0 DoSepK=F KAlg= 0 I1Cent=           0 FoldK=F
 IRaf= 830000000 NMat=       1 IRICut=       1 DoRegI=T DoRafI=F ISym2E= 0 IDoP0=0 IntGTp=1.
 FoFCou: FMM=F IPFlag=           0 FMFlag=      100000 FMFlg1=           0
         NFxFlg=           0 DoJE=F BraDBF=F KetDBF=F FulRan=T
         wScrn=  0.000000 ICntrl=         0 IOpCl=  0 I1Cent=           0 NGrid=           0
         NMat0=    1 NMatS0=      1 NMatT0=    0 NMatD0=    1 NMtDS0=    0 NMtDT0=    0
 Symmetry not used in FoFCou.
 E= -1803.50048831171    
 DIIS: error= 2.34D-02 at cycle   1 NSaved=   1.
 NSaved= 1 IEnMin= 1 EnMin= -1803.50048831171     IErMin= 1 ErrMin= 2.34D-02
 ErrMax= 2.34D-02  0.00D+00 EMaxC= 1.00D-01 BMatC= 1.39D+00 BMatP= 1.39D+00
 IDIUse=3 WtCom= 7.66D-01 WtEn= 2.34D-01
 Coeff-Com:  0.100D+01
 Coeff-En:   0.100D+01
 Coeff:      0.100D+01
 Gap=     0.274 Goal=   None    Shift=    0.000
 GapD=    0.274 DampG=1.000 DampE=0.500 DampFc=0.5000 IDamp=-1.
 Damping current iteration by 5.00D-01
 RMSDP=5.52D-03 MaxDP=7.85D-01              OVMax= 2.34D-01

 Cycle   2  Pass 1  IDiag  1:
 RMSU=  2.70D-03    CP:  1.05D+00
 E= -1803.85588969454     Delta-E=       -0.355401382830 Rises=F Damp=T
 DIIS: error= 6.72D-03 at cycle   2 NSaved=   2.
 NSaved= 2 IEnMin= 2 EnMin= -1803.85588969454     IErMin= 2 ErrMin= 6.72D-03
 ErrMax= 6.72D-03  0.00D+00 EMaxC= 1.00D-01 BMatC= 7.93D-02 BMatP= 1.39D+00
 IDIUse=3 WtCom= 9.33D-01 WtEn= 6.72D-02
 Coeff-Com:  0.327D-01 0.967D+00
 Coeff-En:   0.127D+00 0.873D+00
 Coeff:      0.391D-01 0.961D+00
 Gap=     0.339 Goal=   None    Shift=    0.000
 RMSDP=2.37D-03 MaxDP=4.31D-01 DE=-3.55D-01 OVMax= 1.17D-01

 Cycle   3  Pass 1  IDiag  1:
 RMSU=  1.66D-03    CP:  9.21D-01  6.93D-01
 E= -1804.29253248079     Delta-E=       -0.436642786247 Rises=F Damp=F
 DIIS: error= 3.67D-03 at cycle   3 NSaved=   3.
 NSaved= 3 IEnMin= 3 EnMin= -1804.29253248079     IErMin= 3 ErrMin= 3.67D-03
 ErrMax= 3.67D-03  0.00D+00 EMaxC= 1.00D-01 BMatC= 2.57D-02 BMatP= 7.93D-02
 IDIUse=3 WtCom= 9.63D-01 WtEn= 3.67D-02
 Coeff-Com: -0.459D-01 0.318D+00 0.728D+00
 Coeff-En:   0.000D+00 0.000D+00 0.100D+01
 Coeff:     -0.443D-01 0.307D+00 0.738D+00
 Gap=     0.299 Goal=   None    Shift=    0.000
 RMSDP=4.40D-04 MaxDP=2.51D-02 DE=-4.37D-01 OVMax= 3.72D-02

 Cycle   4  Pass 1  IDiag  1:
 RMSU=  4.00D-04    CP:  9.20D-01  7.59D-01  9.80D-01
 E= -1804.30626655022     Delta-E=       -0.013734069425 Rises=F Damp=F
 DIIS: error= 1.91D-03 at cycle   4 NSaved=   4.
 NSaved= 4 IEnMin= 4 EnMin= -1804.30626655022     IErMin= 4 ErrMin= 1.91D-03
 ErrMax= 1.91D-03  0.00D+00 EMaxC= 1.00D-01 BMatC= 7.48D-03 BMatP= 2.57D-02
 IDIUse=3 WtCom= 9.81D-01 WtEn= 1.91D-02
 Coeff-Com: -0.267D-01 0.748D-01 0.396D+00 0.556D+00
 Coeff-En:   0.000D+00 0.000D+00 0.206D+00 0.794D+00
 Coeff:     -0.262D-01 0.734D-01 0.393D+00 0.560D+00
 Gap=     0.298 Goal=   None    Shift=    0.000
 RMSDP=1.93D-04 MaxDP=1.73D-02 DE=-1.37D-02 OVMax= 1.41D-02

 Cycle   5  Pass 1  IDiag  1:
 RMSU=  1.22D-04    CP:  9.18D-01  7.57D-01  1.01D+00  6.55D-01
 E= -1804.31167718666     Delta-E=       -0.005410636442 Rises=F Damp=F
 DIIS: error= 2.68D-04 at cycle   5 NSaved=   5.
 NSaved= 5 IEnMin= 5 EnMin= -1804.31167718666     IErMin= 5 ErrMin= 2.68D-04
 ErrMax= 2.68D-04  0.00D+00 EMaxC= 1.00D-01 BMatC= 2.24D-04 BMatP= 7.48D-03
 IDIUse=3 WtCom= 9.97D-01 WtEn= 2.68D-03
 Coeff-Com: -0.807D-02 0.154D-01 0.125D+00 0.235D+00 0.632D+00
 Coeff-En:   0.000D+00 0.000D+00 0.000D+00 0.000D+00 0.100D+01
 Coeff:     -0.805D-02 0.154D-01 0.125D+00 0.235D+00 0.633D+00
 Gap=     0.295 Goal=   None    Shift=    0.000
 RMSDP=4.76D-05 MaxDP=5.07D-03 DE=-5.41D-03 OVMax= 2.72D-03

 Cycle   6  Pass 1  IDiag  1:
 RMSU=  3.18D-05    CP:  9.16D-01  7.52D-01  1.02D+00  6.94D-01  8.27D-01
 E= -1804.31183140456     Delta-E=       -0.000154217898 Rises=F Damp=F
 DIIS: error= 9.45D-05 at cycle   6 NSaved=   6.
 NSaved= 6 IEnMin= 6 EnMin= -1804.31183140456     IErMin= 6 ErrMin= 9.45D-05
 ErrMax= 9.45D-05  0.00D+00 EMaxC= 1.00D-01 BMatC= 2.59D-05 BMatP= 2.24D-04
 IDIUse=1 WtCom= 1.00D+00 WtEn= 0.00D+00
 Coeff-Com: -0.171D-02 0.153D-02 0.275D-01 0.678D-01 0.307D+00 0.598D+00
 Coeff:     -0.171D-02 0.153D-02 0.275D-01 0.678D-01 0.307D+00 0.598D+00
 Gap=     0.295 Goal=   None    Shift=    0.000
 RMSDP=1.46D-05 MaxDP=1.59D-03 DE=-1.54D-04 OVMax= 1.15D-03

 Cycle   7  Pass 1  IDiag  1:
 RMSU=  1.29D-05    CP:  9.16D-01  7.52D-01  1.02D+00  7.03D-01  8.44D-01
                    CP:  8.46D-01
 E= -1804.31185105249     Delta-E=       -0.000019647935 Rises=F Damp=F
 DIIS: error= 4.95D-05 at cycle   7 NSaved=   7.
 NSaved= 7 IEnMin= 7 EnMin= -1804.31185105249     IErMin= 7 ErrMin= 4.95D-05
 ErrMax= 4.95D-05  0.00D+00 EMaxC= 1.00D-01 BMatC= 2.54D-06 BMatP= 2.59D-05
 IDIUse=1 WtCom= 1.00D+00 WtEn= 0.00D+00
 Coeff-Com:  0.183D-03-0.109D-02-0.311D-02 0.258D-02 0.684D-01 0.265D+00
 Coeff-Com:  0.668D+00
 Coeff:      0.183D-03-0.109D-02-0.311D-02 0.258D-02 0.684D-01 0.265D+00
 Coeff:      0.668D+00
 Gap=     0.296 Goal=   None    Shift=    0.000
 RMSDP=5.07D-06 MaxDP=5.89D-04 DE=-1.96D-05 OVMax= 3.73D-04

 Cycle   8  Pass 1  IDiag  1:
 RMSU=  3.92D-06    CP:  9.16D-01  7.52D-01  1.02D+00  7.05D-01  8.57D-01
                    CP:  8.94D-01  9.62D-01
 E= -1804.31185302640     Delta-E=       -0.000001973909 Rises=F Damp=F
 DIIS: error= 1.11D-05 at cycle   8 NSaved=   8.
 NSaved= 8 IEnMin= 8 EnMin= -1804.31185302640     IErMin= 8 ErrMin= 1.11D-05
 ErrMax= 1.11D-05  0.00D+00 EMaxC= 1.00D-01 BMatC= 3.45D-07 BMatP= 2.54D-06
 IDIUse=1 WtCom= 1.00D+00 WtEn= 0.00D+00
 Coeff-Com:  0.320D-03-0.664D-03-0.577D-02-0.930D-02-0.165D-01 0.170D-01
 Coeff-Com:  0.288D+00 0.727D+00
 Coeff:      0.320D-03-0.664D-03-0.577D-02-0.930D-02-0.165D-01 0.170D-01
 Coeff:      0.288D+00 0.727D+00
 Gap=     0.296 Goal=   None    Shift=    0.000
 RMSDP=2.95D-06 MaxDP=4.35D-04 DE=-1.97D-06 OVMax= 1.75D-04

 Cycle   9  Pass 1  IDiag  1:
 RMSU=  1.93D-06    CP:  9.16D-01  7.52D-01  1.02D+00  7.06D-01  8.70D-01
                    CP:  9.14D-01  9.61D-01  7.92D-01
 E= -1804.31185332876     Delta-E=       -0.000000302364 Rises=F Damp=F
 DIIS: error= 3.26D-06 at cycle   9 NSaved=   9.
 NSaved= 9 IEnMin= 9 EnMin= -1804.31185332876     IErMin= 9 ErrMin= 3.26D-06
 ErrMax= 3.26D-06  0.00D+00 EMaxC= 1.00D-01 BMatC= 4.14D-08 BMatP= 3.45D-07
 IDIUse=1 WtCom= 1.00D+00 WtEn= 0.00D+00
 Coeff-Com:  0.119D-03-0.189D-03-0.238D-02-0.441D-02-0.130D-01-0.139D-01
 Coeff-Com:  0.760D-01 0.334D+00 0.623D+00
 Coeff:      0.119D-03-0.189D-03-0.238D-02-0.441D-02-0.130D-01-0.139D-01
 Coeff:      0.760D-01 0.334D+00 0.623D+00
 Gap=     0.296 Goal=   None    Shift=    0.000
 RMSDP=7.53D-07 MaxDP=8.37D-05 DE=-3.02D-07 OVMax= 4.96D-05

 Cycle  10  Pass 1  IDiag  1:
 RMSU=  5.07D-07    CP:  9.16D-01  7.52D-01  1.02D+00  7.06D-01  8.69D-01
                    CP:  9.19D-01  9.82D-01  8.57D-01  9.09D-01
 E= -1804.31185336502     Delta-E=       -0.000000036258 Rises=F Damp=F
 DIIS: error= 1.16D-06 at cycle  10 NSaved=  10.
 NSaved=10 IEnMin=10 EnMin= -1804.31185336502     IErMin=10 ErrMin= 1.16D-06
 ErrMax= 1.16D-06  0.00D+00 EMaxC= 1.00D-01 BMatC= 4.15D-09 BMatP= 4.14D-08
 IDIUse=1 WtCom= 1.00D+00 WtEn= 0.00D+00
 Coeff-Com:  0.469D-05 0.744D-05-0.221D-03-0.545D-03-0.307D-02-0.769D-02
 Coeff-Com: -0.741D-02 0.372D-01 0.246D+00 0.735D+00
 Coeff:      0.469D-05 0.744D-05-0.221D-03-0.545D-03-0.307D-02-0.769D-02
 Coeff:     -0.741D-02 0.372D-01 0.246D+00 0.735D+00
 Gap=     0.296 Goal=   None    Shift=    0.000
 RMSDP=2.42D-07 MaxDP=2.54D-05 DE=-3.63D-08 OVMax= 2.41D-05

 Cycle  11  Pass 1  IDiag  1:
 RMSU=  1.93D-07    CP:  9.16D-01  7.52D-01  1.02D+00  7.06D-01  8.69D-01
                    CP:  9.19D-01  9.85D-01  8.81D-01  9.50D-01  9.84D-01
 E= -1804.31185336911     Delta-E=       -0.000000004085 Rises=F Damp=F
 DIIS: error= 4.63D-07 at cycle  11 NSaved=  11.
 NSaved=11 IEnMin=11 EnMin= -1804.31185336911     IErMin=11 ErrMin= 4.63D-07
 ErrMax= 4.63D-07  0.00D+00 EMaxC= 1.00D-01 BMatC= 5.80D-10 BMatP= 4.15D-09
 IDIUse=1 WtCom= 1.00D+00 WtEn= 0.00D+00
 Coeff-Com: -0.147D-04 0.300D-04 0.251D-03 0.399D-03 0.499D-03-0.118D-02
 Coeff-Com: -0.140D-01-0.342D-01 0.389D-02 0.295D+00 0.750D+00
 Coeff:     -0.147D-04 0.300D-04 0.251D-03 0.399D-03 0.499D-03-0.118D-02
 Coeff:     -0.140D-01-0.342D-01 0.389D-02 0.295D+00 0.750D+00
 Gap=     0.296 Goal=   None    Shift=    0.000
 RMSDP=1.35D-07 MaxDP=1.95D-05 DE=-4.09D-09 OVMax= 1.50D-05

 Cycle  12  Pass 1  IDiag  1:
 RMSU=  5.79D-08    CP:  9.16D-01  7.52D-01  1.02D+00  7.06D-01  8.70D-01
                    CP:  9.20D-01  9.82D-01  8.80D-01  9.86D-01  1.09D+00
                    CP:  1.00D+00
 E= -1804.31185336982     Delta-E=       -0.000000000709 Rises=F Damp=F
 DIIS: error= 2.94D-07 at cycle  12 NSaved=  12.
 NSaved=12 IEnMin=12 EnMin= -1804.31185336982     IErMin=12 ErrMin= 2.94D-07
 ErrMax= 2.94D-07  0.00D+00 EMaxC= 1.00D-01 BMatC= 7.06D-11 BMatP= 5.80D-10
 IDIUse=1 WtCom= 1.00D+00 WtEn= 0.00D+00
 Coeff-Com: -0.542D-05 0.995D-05 0.116D-03 0.202D-03 0.482D-03 0.356D-03
 Coeff-Com: -0.465D-02-0.165D-01-0.237D-01 0.403D-01 0.298D+00 0.706D+00
 Coeff:     -0.542D-05 0.995D-05 0.116D-03 0.202D-03 0.482D-03 0.356D-03
 Coeff:     -0.465D-02-0.165D-01-0.237D-01 0.403D-01 0.298D+00 0.706D+00
 Gap=     0.296 Goal=   None    Shift=    0.000
 RMSDP=3.46D-08 MaxDP=5.43D-06 DE=-7.09D-10 OVMax= 3.14D-06

 Cycle  13  Pass 1  IDiag  1:
 RMSU=  2.31D-08    CP:  9.16D-01  7.52D-01  1.02D+00  7.06D-01  8.70D-01
                    CP:  9.20D-01  9.81D-01  8.81D-01  9.91D-01  1.11D+00
                    CP:  1.07D+00  1.02D+00
 E= -1804.31185336997     Delta-E=       -0.000000000149 Rises=F Damp=F
 DIIS: error= 9.62D-08 at cycle  13 NSaved=  13.
 NSaved=13 IEnMin=13 EnMin= -1804.31185336997     IErMin=13 ErrMin= 9.62D-08
 ErrMax= 9.62D-08  0.00D+00 EMaxC= 1.00D-01 BMatC= 1.28D-11 BMatP= 7.06D-11
 IDIUse=1 WtCom= 1.00D+00 WtEn= 0.00D+00
 Coeff-Com:  0.708D-07-0.545D-06 0.130D-04 0.267D-04 0.131D-03 0.340D-03
 Coeff-Com:  0.667D-04-0.177D-02-0.110D-01-0.283D-01 0.213D-01 0.328D+00
 Coeff-Com:  0.691D+00
 Coeff:      0.708D-07-0.545D-06 0.130D-04 0.267D-04 0.131D-03 0.340D-03
 Coeff:      0.667D-04-0.177D-02-0.110D-01-0.283D-01 0.213D-01 0.328D+00
 Coeff:      0.691D+00
 Gap=     0.296 Goal=   None    Shift=    0.000
 RMSDP=1.45D-08 MaxDP=1.91D-06 DE=-1.49D-10 OVMax= 2.49D-06

 Cycle  14  Pass 1  IDiag  1:
 RMSU=  9.64D-09    CP:  9.16D-01  7.52D-01  1.02D+00  7.06D-01  8.70D-01
                    CP:  9.20D-01  9.81D-01  8.82D-01  9.90D-01  1.11D+00
                    CP:  1.10D+00  1.14D+00  8.63D-01
 E= -1804.31185336991     Delta-E=        0.000000000058 Rises=F Damp=F
 DIIS: error= 3.32D-08 at cycle  14 NSaved=  14.
 NSaved=14 IEnMin=13 EnMin= -1804.31185336997     IErMin=14 ErrMin= 3.32D-08
 ErrMax= 3.32D-08  0.00D+00 EMaxC= 1.00D-01 BMatC= 2.22D-12 BMatP= 1.28D-11
 IDIUse=1 WtCom= 1.00D+00 WtEn= 0.00D+00
 Coeff-Com:  0.779D-06-0.161D-05-0.922D-05-0.147D-04-0.581D-05 0.105D-03
 Coeff-Com:  0.633D-03 0.150D-02-0.209D-02-0.210D-01-0.338D-01 0.570D-01
 Coeff-Com:  0.348D+00 0.650D+00
 Coeff:      0.779D-06-0.161D-05-0.922D-05-0.147D-04-0.581D-05 0.105D-03
 Coeff:      0.633D-03 0.150D-02-0.209D-02-0.210D-01-0.338D-01 0.570D-01
 Coeff:      0.348D+00 0.650D+00
 Gap=     0.296 Goal=   None    Shift=    0.000
 RMSDP=5.51D-09 MaxDP=6.08D-07 DE= 5.82D-11 OVMax= 5.84D-07

 SCF Done:  E(RM062X) =  -1804.31185337     A.U. after   14 cycles
            NFock= 14  Conv=0.55D-08     -V/T= 2.0030
 KE= 1.798843725636D+03 PE=-8.947724191192D+03 EE= 2.999991226732D+03
 Leave Link  502 at Thu May 12 18:12:50 2022, MaxMem= 10485760000 cpu:            4822.2 elap:             220.0
 (Enter /data0/hywu0/study/g16/l601.exe)
 Copying SCF densities to generalized density rwf, IOpCl= 0 IROHF=0.

 **********************************************************************

            Population analysis using the SCF density.

 **********************************************************************

 Alpha  occ. eigenvalues --  -90.10908 -78.12885 -19.63962 -19.63129 -19.62541
 Alpha  occ. eigenvalues --  -19.61971 -19.61893 -19.61414 -19.61375 -19.60926
 Alpha  occ. eigenvalues --  -19.55451 -14.86666 -14.86553 -10.67485 -10.63646
 Alpha  occ. eigenvalues --  -10.62028 -10.61613 -10.59370 -10.59219 -10.59152
 Alpha  occ. eigenvalues --   -8.44382  -6.93622  -6.36654  -6.36643  -6.36586
 Alpha  occ. eigenvalues --   -5.05540  -5.05513  -5.05333  -1.25422  -1.19767
 Alpha  occ. eigenvalues --   -1.19329  -1.13426  -1.12492  -1.12341  -1.11456
 Alpha  occ. eigenvalues --   -1.11395  -1.10765  -1.08250  -1.06046  -0.94378
 Alpha  occ. eigenvalues --   -0.90579  -0.86867  -0.82278  -0.76995  -0.73079
 Alpha  occ. eigenvalues --   -0.71362  -0.68979  -0.67794  -0.65647  -0.62512
 Alpha  occ. eigenvalues --   -0.61591  -0.61138  -0.60509  -0.59063  -0.59014
 Alpha  occ. eigenvalues --   -0.57951  -0.57347  -0.56715  -0.56271  -0.55229
 Alpha  occ. eigenvalues --   -0.55108  -0.53207  -0.52114  -0.51653  -0.50972
 Alpha  occ. eigenvalues --   -0.50747  -0.49162  -0.48137  -0.47201  -0.46861
 Alpha  occ. eigenvalues --   -0.46236  -0.45881  -0.45117  -0.44482  -0.43956
 Alpha  occ. eigenvalues --   -0.43017  -0.42503  -0.41308  -0.40024  -0.39951
 Alpha  occ. eigenvalues --   -0.39574  -0.39012  -0.38726  -0.37586  -0.37091
 Alpha  occ. eigenvalues --   -0.36272  -0.35189  -0.34954  -0.32110
 Alpha virt. eigenvalues --   -0.02553  -0.00692   0.00287   0.00832   0.01124
 Alpha virt. eigenvalues --    0.01801   0.02454   0.02662   0.03113   0.03512
 Alpha virt. eigenvalues --    0.04694   0.05099   0.05305   0.05753   0.05983
 Alpha virt. eigenvalues --    0.06831   0.07281   0.07852   0.08269   0.08491
 Alpha virt. eigenvalues --    0.08823   0.09289   0.09869   0.10284   0.10650
 Alpha virt. eigenvalues --    0.11442   0.12163   0.12265   0.12627   0.12840
 Alpha virt. eigenvalues --    0.13176   0.13544   0.13686   0.14143   0.14378
 Alpha virt. eigenvalues --    0.15288   0.15490   0.15659   0.16148   0.16416
 Alpha virt. eigenvalues --    0.16598   0.17018   0.17562   0.17783   0.18056
 Alpha virt. eigenvalues --    0.18508   0.18652   0.18849   0.18931   0.19750
 Alpha virt. eigenvalues --    0.19971   0.20395   0.20836   0.21090   0.21367
 Alpha virt. eigenvalues --    0.21707   0.22027   0.22287   0.22708   0.23468
 Alpha virt. eigenvalues --    0.23488   0.23893   0.24451   0.24554   0.24897
 Alpha virt. eigenvalues --    0.25253   0.25932   0.26036   0.26351   0.26849
 Alpha virt. eigenvalues --    0.27065   0.27581   0.27816   0.28284   0.28415
 Alpha virt. eigenvalues --    0.28960   0.29250   0.29521   0.29853   0.30185
 Alpha virt. eigenvalues --    0.30734   0.31105   0.31798   0.32018   0.32430
 Alpha virt. eigenvalues --    0.32654   0.33404   0.33539   0.33979   0.34114
 Alpha virt. eigenvalues --    0.34298   0.34670   0.35249   0.35699   0.36225
 Alpha virt. eigenvalues --    0.36480   0.36719   0.37081   0.37505   0.37857
 Alpha virt. eigenvalues --    0.38263   0.39170   0.39878   0.40190   0.40876
 Alpha virt. eigenvalues --    0.41447   0.41573   0.42376   0.42805   0.43146
 Alpha virt. eigenvalues --    0.43433   0.44452   0.44862   0.45067   0.45485
 Alpha virt. eigenvalues --    0.46357   0.47178   0.47617   0.47949   0.48253
 Alpha virt. eigenvalues --    0.49859   0.50120   0.50779   0.52150   0.52459
 Alpha virt. eigenvalues --    0.52769   0.54056   0.54619   0.55276   0.56044
 Alpha virt. eigenvalues --    0.57094   0.57349   0.58410   0.58716   0.59030
 Alpha virt. eigenvalues --    0.59429   0.59688   0.60569   0.60864   0.61327
 Alpha virt. eigenvalues --    0.62555   0.62780   0.63258   0.63704   0.64817
 Alpha virt. eigenvalues --    0.65255   0.66333   0.66626   0.66896   0.67832
 Alpha virt. eigenvalues --    0.67993   0.68810   0.69446   0.69979   0.70860
 Alpha virt. eigenvalues --    0.71435   0.72025   0.72749   0.73186   0.74047
 Alpha virt. eigenvalues --    0.74624   0.75243   0.75682   0.76831   0.78300
 Alpha virt. eigenvalues --    0.78656   0.79577   0.79909   0.80927   0.81477
 Alpha virt. eigenvalues --    0.82130   0.82917   0.84081   0.84692   0.84804
 Alpha virt. eigenvalues --    0.86082   0.87110   0.87720   0.88613   0.89631
 Alpha virt. eigenvalues --    0.90469   0.91497   0.91812   0.92765   0.93539
 Alpha virt. eigenvalues --    0.94198   0.95363   0.96053   0.98584   0.99597
 Alpha virt. eigenvalues --    0.99882   1.01173   1.04183   1.04512   1.05370
 Alpha virt. eigenvalues --    1.07009   1.08025   1.08696   1.09749   1.10216
 Alpha virt. eigenvalues --    1.11691   1.11899   1.12240   1.13344   1.13513
 Alpha virt. eigenvalues --    1.14924   1.15282   1.15798   1.16631   1.16936
 Alpha virt. eigenvalues --    1.18043   1.19204   1.19334   1.20123   1.20928
 Alpha virt. eigenvalues --    1.21243   1.22550   1.23045   1.23296   1.23393
 Alpha virt. eigenvalues --    1.24074   1.24500   1.25031   1.25064   1.26193
 Alpha virt. eigenvalues --    1.26443   1.27353   1.28185   1.28566   1.29191
 Alpha virt. eigenvalues --    1.29968   1.30165   1.31035   1.31728   1.32109
 Alpha virt. eigenvalues --    1.32379   1.33047   1.34144   1.34212   1.35649
 Alpha virt. eigenvalues --    1.35806   1.36119   1.36627   1.37296   1.37817
 Alpha virt. eigenvalues --    1.38463   1.39140   1.40361   1.41403   1.41948
 Alpha virt. eigenvalues --    1.42401   1.42682   1.43031   1.44010   1.44448
 Alpha virt. eigenvalues --    1.44699   1.45642   1.46386   1.46829   1.48245
 Alpha virt. eigenvalues --    1.48746   1.49039   1.50634   1.51201   1.52166
 Alpha virt. eigenvalues --    1.52999   1.54038   1.54799   1.55376   1.55775
 Alpha virt. eigenvalues --    1.56345   1.57799   1.57929   1.59739   1.60553
 Alpha virt. eigenvalues --    1.62027   1.63255   1.64250   1.64901   1.66770
 Alpha virt. eigenvalues --    1.67219   1.69024   1.69163   1.70097   1.71355
 Alpha virt. eigenvalues --    1.71997   1.73770   1.74483   1.75799   1.76461
 Alpha virt. eigenvalues --    1.76954   1.77798   1.78369   1.79242   1.80008
 Alpha virt. eigenvalues --    1.81152   1.82323   1.82576   1.83425   1.84106
 Alpha virt. eigenvalues --    1.86276   1.86818   1.87801   1.88343   1.89242
 Alpha virt. eigenvalues --    1.89737   1.90367   1.91009   1.92406   1.93966
 Alpha virt. eigenvalues --    1.94908   1.95717   1.96183   1.96508   1.98337
 Alpha virt. eigenvalues --    1.99010   1.99578   2.00385   2.01019   2.01528
 Alpha virt. eigenvalues --    2.02183   2.03106   2.04820   2.06218   2.07510
 Alpha virt. eigenvalues --    2.07812   2.08534   2.10185   2.10393   2.11459
 Alpha virt. eigenvalues --    2.12792   2.13519   2.14589   2.15441   2.16736
 Alpha virt. eigenvalues --    2.18048   2.19295   2.20453   2.21940   2.23262
 Alpha virt. eigenvalues --    2.24157   2.24450   2.25766   2.27332   2.27552
 Alpha virt. eigenvalues --    2.28871   2.29124   2.29684   2.30018   2.31287
 Alpha virt. eigenvalues --    2.32844   2.33904   2.35005   2.35165   2.36794
 Alpha virt. eigenvalues --    2.37657   2.39046   2.39969   2.40717   2.42026
 Alpha virt. eigenvalues --    2.43480   2.43966   2.44786   2.45761   2.47322
 Alpha virt. eigenvalues --    2.48228   2.49717   2.51514   2.53293   2.53770
 Alpha virt. eigenvalues --    2.55170   2.56586   2.63829   2.64144   2.64919
 Alpha virt. eigenvalues --    2.67434   2.68914   2.71673   2.72716   2.73563
 Alpha virt. eigenvalues --    2.74747   2.75035   2.75996   2.77926   2.78234
 Alpha virt. eigenvalues --    2.80785   2.81223   2.83066   2.84755   2.85150
 Alpha virt. eigenvalues --    2.86280   2.87795   2.88047   2.90126   2.91360
 Alpha virt. eigenvalues --    2.92210   2.93133   2.94804   2.95115   2.97629
 Alpha virt. eigenvalues --    2.99162   2.99466   3.00341   3.03642   3.04812
 Alpha virt. eigenvalues --    3.06699   3.07044   3.08843   3.09864   3.11337
 Alpha virt. eigenvalues --    3.15015   3.18164   3.19436   3.19866   3.21666
 Alpha virt. eigenvalues --    3.26399   3.26636   3.28046   3.29529   3.31741
 Alpha virt. eigenvalues --    3.33543   3.34704   3.37045   3.37892   3.39959
 Alpha virt. eigenvalues --    3.41549   3.45745   3.47472   3.48142   3.48746
 Alpha virt. eigenvalues --    3.49362   3.50869   3.51761   3.54223   3.55655
 Alpha virt. eigenvalues --    3.56265   3.58015   3.58905   3.61972   3.62635
 Alpha virt. eigenvalues --    3.63187   3.63770   3.65553   3.67319   3.68320
 Alpha virt. eigenvalues --    3.70370   3.71758   3.72887   3.81982   3.84960
 Alpha virt. eigenvalues --    3.86315   3.88600   3.90736   3.93233   3.97066
 Alpha virt. eigenvalues --    4.04253   4.05707   4.07358   4.14573   4.14673
 Alpha virt. eigenvalues --    4.17523   4.19326   4.20566   4.22766   4.35919
 Alpha virt. eigenvalues --    4.46833   4.53974   4.96847   5.01563   5.03909
 Alpha virt. eigenvalues --    5.07073   5.09235   5.11753   5.12863   5.13527
 Alpha virt. eigenvalues --    5.15925   5.16662   5.17699   5.19192   5.19672
 Alpha virt. eigenvalues --    5.20467   5.21231   5.22525   5.24240   5.27680
 Alpha virt. eigenvalues --    5.29062   5.30357   5.32310   5.33316   5.35788
 Alpha virt. eigenvalues --    5.37024   5.38848   5.41438   5.44971   5.46902
 Alpha virt. eigenvalues --    5.51478   5.51934   5.56959   5.58098   5.58716
 Alpha virt. eigenvalues --    5.62610   5.64138   5.64656   5.66327   5.68461
 Alpha virt. eigenvalues --    5.85061   5.98563   6.00221   6.78052   6.78467
 Alpha virt. eigenvalues --    6.78687   6.79549   6.79757   6.80327   6.81950
 Alpha virt. eigenvalues --    6.82436   6.82798   6.83000   6.84398   6.85155
 Alpha virt. eigenvalues --    6.85535   6.86549   6.89012   6.89495   6.90606
 Alpha virt. eigenvalues --    6.92409   6.93437   6.93569   6.93920   6.94739
 Alpha virt. eigenvalues --    6.96754   6.99230   7.00747   7.00956   7.02215
 Alpha virt. eigenvalues --    7.03782   7.04570   7.08339   7.11851   7.13445
 Alpha virt. eigenvalues --    7.15808   7.17293   7.19553   7.21377   7.26683
 Alpha virt. eigenvalues --    7.28666   7.31597   7.35872   7.37968   7.39739
 Alpha virt. eigenvalues --    7.40970   7.43047   7.46716   7.72673   8.61548
 Alpha virt. eigenvalues --   14.29122  14.34516  14.43130  17.75312  17.77258
 Alpha virt. eigenvalues --   17.86338  23.91491  23.95740  23.98835  24.02722
 Alpha virt. eigenvalues --   24.06371  24.11422  24.17568  35.61705  35.69700
 Alpha virt. eigenvalues --   50.05244  50.06697  50.07160  50.07899  50.09768
 Alpha virt. eigenvalues --   50.11039  50.13379  50.15743  50.19254 163.98174
 Alpha virt. eigenvalues --  189.92776
          Condensed to atoms (all electrons):
               1          2          3          4          5          6
     1  C    8.305947  -1.768015  -0.793228   0.114718   0.364150  -0.012458
     2  C   -1.768015   7.503905  -0.396627   0.287916   0.004991   0.380265
     3  C   -0.793228  -0.396627   8.520590  -0.409633   0.009010   0.016524
     4  N    0.114718   0.287916  -0.409633   6.472041  -0.031384   0.004927
     5  H    0.364150   0.004991   0.009010  -0.031384   0.422623  -0.001300
     6  H   -0.012458   0.380265   0.016524   0.004927  -0.001300   0.476742
     7  H    0.023374   0.008260   0.308476  -0.003104  -0.000000  -0.000081
     8  C   -0.186723   0.048145  -0.315398   0.218554   0.002631  -0.001951
     9  H   -0.007670   0.021091   0.003356  -0.057100   0.002316  -0.000024
    10  H   -0.002626   0.010429  -0.028769  -0.040307   0.000422   0.000003
    11  H   -0.008947  -0.002643   0.037124  -0.031938   0.000051   0.000012
    12  N    0.151105   0.160024   0.071264  -0.044455   0.006319  -0.032670
    13  C   -0.231523   0.122964  -0.331738   0.006008   0.002715   0.005590
    14  H    0.014055  -0.016480  -0.006496  -0.002375  -0.000029   0.000638
    15  H    0.000132  -0.003908  -0.007666   0.007112   0.000005  -0.000123
    16  C    0.195236  -0.390402   0.344551  -0.095875  -0.001767   0.001806
    17  H    0.002194   0.005601  -0.005381   0.000120   0.000001  -0.000268
    18  H   -0.011155   0.015866  -0.010401   0.001078   0.000046  -0.000059
    19  C   -0.167262   0.281854   0.032627   0.046021   0.000975  -0.001451
    20  H   -0.000069   0.001085  -0.000993   0.000038  -0.000000   0.000012
    21  H    0.001695  -0.004034  -0.001668   0.000050  -0.000000   0.000018
    22  S    0.103597  -0.090788  -0.278951  -0.014458   0.000476  -0.000218
    23  O   -0.021964   0.030962  -0.039197   0.001396   0.000028  -0.000041
    24  O    0.006103  -0.002730  -0.037395   0.040500   0.000227  -0.001790
    25  O    0.075158  -0.045044  -0.185532   0.068821  -0.000103  -0.000061
    26  P   -0.040213   0.014499   0.006124   0.017535   0.003781   0.000030
    27  O    0.070977  -0.012868  -0.003714  -0.001762  -0.007366   0.000082
    28  O   -0.050828  -0.000055   0.005260   0.016786   0.000493  -0.000032
    29  H    0.001815   0.005113  -0.000166   0.004621  -0.000030   0.000003
    30  O   -0.036390   0.011060   0.002503  -0.005410   0.000513   0.000285
    31  H    0.030026  -0.009587   0.005587  -0.003209  -0.000261  -0.000379
    32  O   -0.006259   0.004593  -0.000697  -0.000317   0.000250  -0.000000
    33  H   -0.001833   0.000127   0.000326  -0.000082   0.000005   0.000000
    34  O    0.013264  -0.008351  -0.009392  -0.009177  -0.000014   0.000000
    35  H   -0.002437   0.002544  -0.002424   0.001055   0.000002  -0.000001
    36  H   -0.001735  -0.000193   0.020352  -0.001689  -0.000000   0.000000
    37  O    0.001603   0.006084  -0.048139   0.009707  -0.000007  -0.000002
    38  H    0.008657  -0.011829   0.063401  -0.023907  -0.000016   0.000007
    39  H   -0.001037   0.000708   0.000012  -0.001915  -0.000000   0.000000
               7          8          9         10         11         12
     1  C    0.023374  -0.186723  -0.007670  -0.002626  -0.008947   0.151105
     2  C    0.008260   0.048145   0.021091   0.010429  -0.002643   0.160024
     3  C    0.308476  -0.315398   0.003356  -0.028769   0.037124   0.071264
     4  N   -0.003104   0.218554  -0.057100  -0.040307  -0.031938  -0.044455
     5  H   -0.000000   0.002631   0.002316   0.000422   0.000051   0.006319
     6  H   -0.000081  -0.001951  -0.000024   0.000003   0.000012  -0.032670
     7  H    0.436228   0.011708   0.000059   0.001342  -0.000029  -0.020289
     8  C    0.011708   5.665937   0.412172   0.419323   0.368265  -0.039915
     9  H    0.000059   0.412172   0.433878  -0.015931  -0.016320  -0.001494
    10  H    0.001342   0.419323  -0.015931   0.502895  -0.026888  -0.005209
    11  H   -0.000029   0.368265  -0.016320  -0.026888   0.419909   0.007826
    12  N   -0.020289  -0.039915  -0.001494  -0.005209   0.007826   6.420343
    13  C   -0.003971  -0.019771   0.000680  -0.000127   0.001873   0.107766
    14  H    0.000449   0.000004  -0.000002  -0.000013   0.000004  -0.057509
    15  H    0.003286   0.001244   0.000000  -0.000002   0.000002  -0.050318
    16  C   -0.004659  -0.029691   0.000055  -0.000029  -0.000128   0.076167
    17  H    0.000010   0.000112  -0.000000  -0.000000   0.000000  -0.003590
    18  H    0.000118  -0.000307   0.000000   0.000000   0.000002  -0.004907
    19  C   -0.004320   0.031810  -0.000181  -0.000300   0.000303  -0.016569
    20  H    0.000004  -0.000058   0.000000   0.000000  -0.000000   0.001178
    21  H    0.000126  -0.000219   0.000000   0.000000  -0.000000  -0.002036
    22  S    0.014232  -0.052361  -0.001010   0.000549   0.004785   0.061446
    23  O    0.000131   0.003225   0.000004   0.000007   0.000128  -0.005361
    24  O    0.003055   0.015264   0.000277   0.000083  -0.001258  -0.083197
    25  O   -0.014457   0.008876   0.000060   0.000015  -0.001224  -0.014044
    26  P    0.000101   0.010603   0.002726   0.001139   0.000337  -0.004903
    27  O   -0.000034  -0.037438   0.005134   0.000864   0.000026  -0.000776
    28  O   -0.000246   0.030933  -0.008546   0.002069  -0.023572  -0.009257
    29  H    0.000021  -0.017623   0.000032  -0.000078   0.004685   0.000886
    30  O   -0.000031   0.008230   0.000364  -0.000008   0.000060   0.003692
    31  H    0.000074  -0.000081  -0.000164  -0.000009   0.000123  -0.002795
    32  O    0.000003   0.001744  -0.000186   0.000008   0.000007   0.000131
    33  H   -0.000000   0.000738   0.000012  -0.000001  -0.000011  -0.000019
    34  O   -0.000021   0.005820   0.000191   0.000040  -0.004659   0.001336
    35  H    0.000041  -0.000738  -0.000004   0.000000   0.000285   0.000163
    36  H   -0.000129  -0.007059   0.000003   0.000013   0.001315  -0.001198
    37  O    0.001433  -0.004539   0.000262   0.000992   0.000111   0.006286
    38  H    0.002387  -0.014463   0.000033   0.000145   0.000452   0.000995
    39  H    0.000046   0.000575  -0.000001   0.000009   0.000186   0.000944
              13         14         15         16         17         18
     1  C   -0.231523   0.014055   0.000132   0.195236   0.002194  -0.011155
     2  C    0.122964  -0.016480  -0.003908  -0.390402   0.005601   0.015866
     3  C   -0.331738  -0.006496  -0.007666   0.344551  -0.005381  -0.010401
     4  N    0.006008  -0.002375   0.007112  -0.095875   0.000120   0.001078
     5  H    0.002715  -0.000029   0.000005  -0.001767   0.000001   0.000046
     6  H    0.005590   0.000638  -0.000123   0.001806  -0.000268  -0.000059
     7  H   -0.003971   0.000449   0.003286  -0.004659   0.000010   0.000118
     8  C   -0.019771   0.000004   0.001244  -0.029691   0.000112  -0.000307
     9  H    0.000680  -0.000002   0.000000   0.000055  -0.000000   0.000000
    10  H   -0.000127  -0.000013  -0.000002  -0.000029  -0.000000   0.000000
    11  H    0.001873   0.000004   0.000002  -0.000128   0.000000   0.000002
    12  N    0.107766  -0.057509  -0.050318   0.076167  -0.003590  -0.004907
    13  C    6.481121   0.443182   0.440720  -0.593676  -0.014655  -0.031406
    14  H    0.443182   0.508397  -0.020963  -0.056838  -0.006146  -0.000545
    15  H    0.440720  -0.020963   0.455545  -0.032538   0.000125   0.003501
    16  C   -0.593676  -0.056838  -0.032538   6.759128   0.398106   0.445315
    17  H   -0.014655  -0.006146   0.000125   0.398106   0.512403  -0.028195
    18  H   -0.031406  -0.000545   0.003501   0.445315  -0.028195   0.478387
    19  C    0.024484   0.004124  -0.009605  -0.707169  -0.030430  -0.030059
    20  H    0.016519  -0.000054  -0.000122  -0.078879  -0.003677  -0.004928
    21  H   -0.011712   0.000024   0.002272  -0.013526  -0.005583   0.004459
    22  S   -0.003199   0.005707   0.003014   0.064613   0.003017  -0.000189
    23  O    0.017128  -0.000066  -0.000332  -0.083943  -0.000036   0.000844
    24  O   -0.020459   0.001888   0.002371  -0.001862   0.001040  -0.009658
    25  O   -0.004460   0.001921   0.004492  -0.005071   0.000301   0.000777
    26  P   -0.004403   0.000031   0.000050  -0.005499   0.000019   0.000179
    27  O   -0.000998   0.000001   0.000001   0.002012  -0.000001   0.000015
    28  O   -0.004394  -0.000001  -0.000005   0.002962  -0.000002  -0.000042
    29  H    0.000720   0.000000   0.000003  -0.001493   0.000000   0.000010
    30  O   -0.000961   0.000007   0.000013  -0.000268  -0.000016   0.000114
    31  H    0.002313  -0.000003  -0.000015   0.004501   0.000033  -0.000555
    32  O    0.000308  -0.000000  -0.000000  -0.000363   0.000000   0.000001
    33  H   -0.000017  -0.000000  -0.000000  -0.000015  -0.000000  -0.000000
    34  O    0.000361  -0.000001  -0.000018   0.007366  -0.000003  -0.000038
    35  H    0.000853   0.000000   0.000001  -0.003488   0.000001   0.000012
    36  H   -0.000899  -0.000000   0.000004  -0.000470   0.000000   0.000002
    37  O    0.010458   0.000025   0.000382  -0.013894  -0.000002   0.000047
    38  H   -0.013147  -0.000016  -0.000441   0.012987   0.000014  -0.000098
    39  H   -0.001599  -0.000000   0.000016   0.001561  -0.000000  -0.000000
              19         20         21         22         23         24
     1  C   -0.167262  -0.000069   0.001695   0.103597  -0.021964   0.006103
     2  C    0.281854   0.001085  -0.004034  -0.090788   0.030962  -0.002730
     3  C    0.032627  -0.000993  -0.001668  -0.278951  -0.039197  -0.037395
     4  N    0.046021   0.000038   0.000050  -0.014458   0.001396   0.040500
     5  H    0.000975  -0.000000  -0.000000   0.000476   0.000028   0.000227
     6  H   -0.001451   0.000012   0.000018  -0.000218  -0.000041  -0.001790
     7  H   -0.004320   0.000004   0.000126   0.014232   0.000131   0.003055
     8  C    0.031810  -0.000058  -0.000219  -0.052361   0.003225   0.015264
     9  H   -0.000181   0.000000   0.000000  -0.001010   0.000004   0.000277
    10  H   -0.000300   0.000000   0.000000   0.000549   0.000007   0.000083
    11  H    0.000303  -0.000000  -0.000000   0.004785   0.000128  -0.001258
    12  N   -0.016569   0.001178  -0.002036   0.061446  -0.005361  -0.083197
    13  C    0.024484   0.016519  -0.011712  -0.003199   0.017128  -0.020459
    14  H    0.004124  -0.000054   0.000024   0.005707  -0.000066   0.001888
    15  H   -0.009605  -0.000122   0.002272   0.003014  -0.000332   0.002371
    16  C   -0.707169  -0.078879  -0.013526   0.064613  -0.083943  -0.001862
    17  H   -0.030430  -0.003677  -0.005583   0.003017  -0.000036   0.001040
    18  H   -0.030059  -0.004928   0.004459  -0.000189   0.000844  -0.009658
    19  C    7.202694   0.443027   0.418710  -0.678805  -0.071291  -0.198161
    20  H    0.443027   0.456323  -0.025198  -0.041222   0.014999   0.003567
    21  H    0.418710  -0.025198   0.451282  -0.041311  -0.000874   0.000262
    22  S   -0.678805  -0.041222  -0.041311  14.919085   0.508341   0.244215
    23  O   -0.071291   0.014999  -0.000874   0.508341   8.263833  -0.057881
    24  O   -0.198161   0.003567   0.000262   0.244215  -0.057881   8.693385
    25  O   -0.083958  -0.001840   0.013568   0.157021  -0.116841   0.016930
    26  P    0.014337  -0.000013   0.000002  -0.025856  -0.000910   0.008571
    27  O   -0.001015  -0.000000   0.000001   0.001322  -0.000582  -0.017772
    28  O   -0.003121   0.000004  -0.000004   0.024047  -0.004781   0.014162
    29  H    0.001857  -0.000005   0.000000  -0.013726   0.003327   0.002135
    30  O   -0.004410   0.000037  -0.000003  -0.033285   0.009820   0.080361
    31  H    0.004316  -0.000172   0.000056   0.046938  -0.008257   0.003621
    32  O   -0.000386   0.000001  -0.000000  -0.004370   0.000766   0.004851
    33  H    0.000077  -0.000000  -0.000000  -0.000456   0.000036   0.000807
    34  O   -0.022721   0.000097   0.000038   0.070107  -0.055965  -0.003068
    35  H    0.015892  -0.000049  -0.000048  -0.000987   0.034368  -0.001846
    36  H    0.001879  -0.000015  -0.000001  -0.007289   0.005270  -0.003806
    37  O    0.000369   0.000029   0.000066  -0.041966   0.000672   0.000349
    38  H   -0.003574   0.000042  -0.000167   0.080966  -0.001545  -0.003387
    39  H   -0.000588  -0.000000   0.000017   0.003615   0.000114   0.000189
              25         26         27         28         29         30
     1  C    0.075158  -0.040213   0.070977  -0.050828   0.001815  -0.036390
     2  C   -0.045044   0.014499  -0.012868  -0.000055   0.005113   0.011060
     3  C   -0.185532   0.006124  -0.003714   0.005260  -0.000166   0.002503
     4  N    0.068821   0.017535  -0.001762   0.016786   0.004621  -0.005410
     5  H   -0.000103   0.003781  -0.007366   0.000493  -0.000030   0.000513
     6  H   -0.000061   0.000030   0.000082  -0.000032   0.000003   0.000285
     7  H   -0.014457   0.000101  -0.000034  -0.000246   0.000021  -0.000031
     8  C    0.008876   0.010603  -0.037438   0.030933  -0.017623   0.008230
     9  H    0.000060   0.002726   0.005134  -0.008546   0.000032   0.000364
    10  H    0.000015   0.001139   0.000864   0.002069  -0.000078  -0.000008
    11  H   -0.001224   0.000337   0.000026  -0.023572   0.004685   0.000060
    12  N   -0.014044  -0.004903  -0.000776  -0.009257   0.000886   0.003692
    13  C   -0.004460  -0.004403  -0.000998  -0.004394   0.000720  -0.000961
    14  H    0.001921   0.000031   0.000001  -0.000001   0.000000   0.000007
    15  H    0.004492   0.000050   0.000001  -0.000005   0.000003   0.000013
    16  C   -0.005071  -0.005499   0.002012   0.002962  -0.001493  -0.000268
    17  H    0.000301   0.000019  -0.000001  -0.000002   0.000000  -0.000016
    18  H    0.000777   0.000179   0.000015  -0.000042   0.000010   0.000114
    19  C   -0.083958   0.014337  -0.001015  -0.003121   0.001857  -0.004410
    20  H   -0.001840  -0.000013  -0.000000   0.000004  -0.000005   0.000037
    21  H    0.013568   0.000002   0.000001  -0.000004   0.000000  -0.000003
    22  S    0.157021  -0.025856   0.001322   0.024047  -0.013726  -0.033285
    23  O   -0.116841  -0.000910  -0.000582  -0.004781   0.003327   0.009820
    24  O    0.016930   0.008571  -0.017772   0.014162   0.002135   0.080361
    25  O    8.862988  -0.000806   0.000023  -0.004036   0.002277  -0.003949
    26  P   -0.000806  12.561395   0.512850   0.168595   0.095092   0.242680
    27  O    0.000023   0.512850   8.285462  -0.051870   0.015472  -0.057641
    28  O   -0.004036   0.168595  -0.051870   8.271264   0.121874   0.030670
    29  H    0.002277   0.095092   0.015472   0.121874   0.474532  -0.022160
    30  O   -0.003949   0.242680  -0.057641   0.030670  -0.022160   8.263791
    31  H    0.004375   0.026105   0.015055  -0.007706  -0.008950   0.123603
    32  O    0.000142   0.186779  -0.041441   0.021732   0.000823   0.011673
    33  H    0.000007   0.024361  -0.000926  -0.008182  -0.002130  -0.007222
    34  O   -0.001567  -0.034822  -0.001272   0.098954  -0.096836   0.013084
    35  H   -0.000458   0.011164   0.000317  -0.022629   0.029545  -0.003607
    36  H    0.001972   0.007697   0.000305  -0.021174   0.026944  -0.000738
    37  O    0.008002  -0.001848   0.000190   0.002816   0.002444  -0.000157
    38  H    0.004170   0.000071   0.000094   0.000120  -0.001960  -0.000535
    39  H    0.007594   0.000284   0.000021   0.001319  -0.000679   0.000005
              31         32         33         34         35         36
     1  C    0.030026  -0.006259  -0.001833   0.013264  -0.002437  -0.001735
     2  C   -0.009587   0.004593   0.000127  -0.008351   0.002544  -0.000193
     3  C    0.005587  -0.000697   0.000326  -0.009392  -0.002424   0.020352
     4  N   -0.003209  -0.000317  -0.000082  -0.009177   0.001055  -0.001689
     5  H   -0.000261   0.000250   0.000005  -0.000014   0.000002  -0.000000
     6  H   -0.000379  -0.000000   0.000000   0.000000  -0.000001   0.000000
     7  H    0.000074   0.000003  -0.000000  -0.000021   0.000041  -0.000129
     8  C   -0.000081   0.001744   0.000738   0.005820  -0.000738  -0.007059
     9  H   -0.000164  -0.000186   0.000012   0.000191  -0.000004   0.000003
    10  H   -0.000009   0.000008  -0.000001   0.000040   0.000000   0.000013
    11  H    0.000123   0.000007  -0.000011  -0.004659   0.000285   0.001315
    12  N   -0.002795   0.000131  -0.000019   0.001336   0.000163  -0.001198
    13  C    0.002313   0.000308  -0.000017   0.000361   0.000853  -0.000899
    14  H   -0.000003  -0.000000  -0.000000  -0.000001   0.000000  -0.000000
    15  H   -0.000015  -0.000000  -0.000000  -0.000018   0.000001   0.000004
    16  C    0.004501  -0.000363  -0.000015   0.007366  -0.003488  -0.000470
    17  H    0.000033   0.000000  -0.000000  -0.000003   0.000001   0.000000
    18  H   -0.000555   0.000001  -0.000000  -0.000038   0.000012   0.000002
    19  C    0.004316  -0.000386   0.000077  -0.022721   0.015892   0.001879
    20  H   -0.000172   0.000001  -0.000000   0.000097  -0.000049  -0.000015
    21  H    0.000056  -0.000000  -0.000000   0.000038  -0.000048  -0.000001
    22  S    0.046938  -0.004370  -0.000456   0.070107  -0.000987  -0.007289
    23  O   -0.008257   0.000766   0.000036  -0.055965   0.034368   0.005270
    24  O    0.003621   0.004851   0.000807  -0.003068  -0.001846  -0.003806
    25  O    0.004375   0.000142   0.000007  -0.001567  -0.000458   0.001972
    26  P    0.026105   0.186779   0.024361  -0.034822   0.011164   0.007697
    27  O    0.015055  -0.041441  -0.000926  -0.001272   0.000317   0.000305
    28  O   -0.007706   0.021732  -0.008182   0.098954  -0.022629  -0.021174
    29  H   -0.008950   0.000823  -0.002130  -0.096836   0.029545   0.026944
    30  O    0.123603   0.011673  -0.007222   0.013084  -0.003607  -0.000738
    31  H    0.276530  -0.001055  -0.002570   0.006714  -0.000707  -0.000476
    32  O   -0.001055   8.047690   0.247011  -0.003582   0.000144   0.000166
    33  H   -0.002570   0.247011   0.441912  -0.000293  -0.000215  -0.000067
    34  O    0.006714  -0.003582  -0.000293   8.034606   0.288067   0.274536
    35  H   -0.000707   0.000144  -0.000215   0.288067   0.360473  -0.003872
    36  H   -0.000476   0.000166  -0.000067   0.274536  -0.003872   0.376803
    37  O   -0.000516  -0.000033   0.000012   0.020856  -0.004442  -0.001819
    38  H    0.001268  -0.000038  -0.000002  -0.002337   0.001600   0.000789
    39  H   -0.000036  -0.000009   0.000000  -0.001418  -0.000668  -0.002952
              37         38         39
     1  C    0.001603   0.008657  -0.001037
     2  C    0.006084  -0.011829   0.000708
     3  C   -0.048139   0.063401   0.000012
     4  N    0.009707  -0.023907  -0.001915
     5  H   -0.000007  -0.000016  -0.000000
     6  H   -0.000002   0.000007   0.000000
     7  H    0.001433   0.002387   0.000046
     8  C   -0.004539  -0.014463   0.000575
     9  H    0.000262   0.000033  -0.000001
    10  H    0.000992   0.000145   0.000009
    11  H    0.000111   0.000452   0.000186
    12  N    0.006286   0.000995   0.000944
    13  C    0.010458  -0.013147  -0.001599
    14  H    0.000025  -0.000016  -0.000000
    15  H    0.000382  -0.000441   0.000016
    16  C   -0.013894   0.012987   0.001561
    17  H   -0.000002   0.000014  -0.000000
    18  H    0.000047  -0.000098  -0.000000
    19  C    0.000369  -0.003574  -0.000588
    20  H    0.000029   0.000042  -0.000000
    21  H    0.000066  -0.000167   0.000017
    22  S   -0.041966   0.080966   0.003615
    23  O    0.000672  -0.001545   0.000114
    24  O    0.000349  -0.003387   0.000189
    25  O    0.008002   0.004170   0.007594
    26  P   -0.001848   0.000071   0.000284
    27  O    0.000190   0.000094   0.000021
    28  O    0.002816   0.000120   0.001319
    29  H    0.002444  -0.001960  -0.000679
    30  O   -0.000157  -0.000535   0.000005
    31  H   -0.000516   0.001268  -0.000036
    32  O   -0.000033  -0.000038  -0.000009
    33  H    0.000012  -0.000002   0.000000
    34  O    0.020856  -0.002337  -0.001418
    35  H   -0.004442   0.001600  -0.000668
    36  H   -0.001819   0.000789  -0.002952
    37  O    8.236733   0.209498   0.272377
    38  H    0.209498   0.362760  -0.021375
    39  H    0.272377  -0.021375   0.439713
 Mulliken charges:
               1
     1  C   -0.131431
     2  C   -0.164532
     3  C   -0.533483
     4  N    0.459089
     5  H    0.220249
     6  H    0.165967
     7  H    0.236407
     8  C   -0.537577
     9  H    0.225925
    10  H    0.179952
    11  H    0.269747
    12  N    0.322639
    13  C   -0.392648
    14  H    0.187080
    15  H    0.201766
    16  C   -0.194825
    17  H    0.174887
    18  H    0.181771
    19  C   -0.489978
    20  H    0.220334
    21  H    0.213739
    22  S    1.013357
    23  O   -0.425533
    24  O   -0.699943
    25  O   -0.756039
    26  P    1.202134
    27  O   -0.672749
    28  O   -0.593575
    29  H    0.371605
    30  O   -0.625773
    31  H    0.496266
    32  O   -0.470087
    33  H    0.308610
    34  O   -0.579885
    35  H    0.302093
    36  H    0.337531
    37  O   -0.674439
    38  H    0.348379
    39  H    0.302971
 Sum of Mulliken charges =  -0.00000
 Mulliken charges with hydrogens summed into heavy atoms:
               1
     1  C    0.088818
     2  C    0.001435
     3  C   -0.297076
     4  N    0.459089
     8  C    0.138047
    12  N    0.322639
    13  C   -0.003802
    16  C    0.161833
    19  C   -0.055906
    22  S    1.013357
    23  O   -0.425533
    24  O   -0.699943
    25  O   -0.756039
    26  P    1.202134
    27  O   -0.672749
    28  O   -0.221970
    30  O   -0.129507
    32  O   -0.161477
    34  O    0.059739
    37  O   -0.023089
         Mulliken charges condensed to fragments:
      1     -0.053082
      2      0.016431
      3      0.059739
      4     -0.023089
 Electronic spatial extent (au):  <R**2>=         181890.3256
 Charge=             -0.0000 electrons
 Dipole moment (field-independent basis, Debye):
    X=              4.6969    Y=              6.9816    Z=              7.1132  Tot=             11.0182
 Quadrupole moment (field-independent basis, Debye-Ang):
   XX=            -32.3257   YY=             -9.4252   ZZ=              9.4584
   XY=            119.7069   XZ=            115.0721   YZ=            140.6984
 Traceless Quadrupole moment (field-independent basis, Debye-Ang):
   XX=            -21.5615   YY=              1.3390   ZZ=             20.2225
   XY=            119.7069   XZ=            115.0721   YZ=            140.6984
 Octapole moment (field-independent basis, Debye-Ang**2):
  XXX=          -2224.8095  YYY=          -2112.6129  ZZZ=          -1666.5009  XYY=            493.7957
  XXY=            506.9159  XXZ=            416.0324  XZZ=            540.7644  YZZ=            801.3067
  YYZ=            714.7239  XYZ=           1871.7087
 Hexadecapole moment (field-independent basis, Debye-Ang**3):
 XXXX=         -52868.8087 YYYY=         -54904.3800 ZZZZ=         -46179.7320 XXXY=         -12703.6311
 XXXZ=         -13798.5692 YYYX=         -14273.7234 YYYZ=         -11474.3925 ZZZX=         -12113.0680
 ZZZY=          -9509.8830 XXYY=          -1180.1850 XXZZ=          -1763.1978 YYZZ=           1262.1347
 XXYZ=          12232.0886 YYXZ=          12504.7039 ZZXY=          12619.3722
 N-N= 2.344577385453D+03 E-N=-8.947724196858D+03  KE= 1.798843725636D+03
 No NMR shielding tensors so no spin-rotation constants.
 Leave Link  601 at Thu May 12 18:12:51 2022, MaxMem= 10485760000 cpu:               5.3 elap:               0.3
 (Enter /data0/hywu0/study/g16/l122.exe)
 CPIOFr:  IOpCl= 0 IRwI=-1 IRwCP=  731 ICalc= -1 LCPTot=      687630 Len1MO=     1809450 IndFrg=      687630
 CPIOFr:  IOpCl= 0 IRwI=-1 IRwCP=  731 ICalc=  0 LCPTot=      687630 Len1MO=     1809450 IndFrg=     2497080
 Counterpoise: doing calculation for fragment   1 using the basis set of the full-system, NewBq=T
 Leave Link  122 at Thu May 12 18:12:51 2022, MaxMem= 10485760000 cpu:               0.6 elap:               0.0
 (Enter /data0/hywu0/study/g16/l301.exe)
 Basis read from rwf:  (5D, 7F)
 No pseudopotential information found on rwf file.
   670 basis functions,  1020 primitive gaussians,   710 cartesian basis functions
    54 alpha electrons       54 beta electrons
       nuclear repulsion energy      1042.4021704026 Hartrees.
 IExCor= 4336 DFT=T Ex+Corr=M062X ExCW=0 ScaHFX=  0.540000
 ScaDFX=  1.000000  1.000000  1.000000  1.000000 ScalE2=  1.000000  1.000000
 IRadAn=      5 IRanWt=     -1 IRanGd=            0 ICorTp=0 IEmpDi=131
 NAtoms=   39 NActive=   39 NUniq=   39 SFac= 1.00D+00 NAtFMM=   60 NAOKFM=F Big=F
 Integral buffers will be    131072 words long.
 Raffenetti 2 integral format.
 Two-electron integral symmetry is turned off.
 R6Disp:  Grimme-D3 Dispersion energy=       -0.0011950363 Hartrees.
 Nuclear repulsion after empirical dispersion term =     1042.4009753663 Hartrees.
 No density basis found on file   718.
 Leave Link  301 at Thu May 12 18:12:51 2022, MaxMem= 10485760000 cpu:               1.1 elap:               0.1
 (Enter /data0/hywu0/study/g16/l302.exe)
 NPDir=0 NMtPBC=     1 NCelOv=     1 NCel=       1 NClECP=     1 NCelD=      1
         NCelK=      1 NCelE2=     1 NClLst=     1 CellRange=     0.0.
 One-electron integrals computed using PRISM.
 NBasis=   670 RedAO= T EigKep=  7.01D-06  NBF=   670
 NBsUse=   670 1.00D-06 EigRej= -1.00D+00 NBFU=   670
 Precomputing XC quadrature grid using
 IXCGrd= 4 IRadAn=           5 IRanWt=          -1 IRanGd=           0 AccXCQ= 0.00D+00.
 Generated NRdTot=       0 NPtTot=           0 NUsed=           0 NTot=          32
 NSgBfM=   708   708   708   708   708 MxSgAt=    39 MxSgA2=    39.
 Leave Link  302 at Thu May 12 18:12:52 2022, MaxMem= 10485760000 cpu:              23.0 elap:               1.1
 (Enter /data0/hywu0/study/g16/l303.exe)
 DipDrv:  MaxL=1.
 Leave Link  303 at Thu May 12 18:12:52 2022, MaxMem= 10485760000 cpu:               2.2 elap:               0.1
 (Enter /data0/hywu0/study/g16/l401.exe)
 ExpMin= 3.48D-02 ExpMax= 9.34D+04 ExpMxC= 3.17D+03 IAcc=3 IRadAn=         5 AccDes= 0.00D+00
 Harris functional with IExCor= 1009 and IRadAn=       5 diagonalized for initial guess.
 HarFok:  IExCor= 1009 AccDes= 0.00D+00 IRadAn=         5 IDoV= 1 UseB2=F ITyADJ=14
 ICtDFT=  3500011 ScaDFX=  1.000000  1.000000  1.000000  1.000000
 FoFCou: FMM=F IPFlag=           0 FMFlag=      100000 FMFlg1=           0
         NFxFlg=           0 DoJE=T BraDBF=F KetDBF=T FulRan=T
         wScrn=  0.000000 ICntrl=       500 IOpCl=  0 I1Cent=   200000004 NGrid=           0
         NMat0=    1 NMatS0=      1 NMatT0=    0 NMatD0=    1 NMtDS0=    0 NMtDT0=    0
 Symmetry not used in FoFCou.
 Harris En= -1006.80538621304    
 JPrj=0 DoOrth=F DoCkMO=F.
 Leave Link  401 at Thu May 12 18:12:56 2022, MaxMem= 10485760000 cpu:              88.9 elap:               4.1
 (Enter /data0/hywu0/study/g16/l502.exe)
 Two-electron integral symmetry not used.
 Closed shell SCF:
 Using DIIS extrapolation, IDIIS=  1040.
 NGot= 10485760000 LenX= 10484731249 LenY= 10484226439
 Requested convergence on RMS density matrix=1.00D-08 within 128 cycles.
 Requested convergence on MAX density matrix=1.00D-06.
 Requested convergence on             energy=1.00D-06.
 No special actions if energy rises.
 Fock matrices will be formed incrementally for  20 cycles.

 Cycle   1  Pass 1  IDiag  1:
[...]
    22  S    0.000000
    23  O    0.000000
    24  O    0.000000
    25  O    0.000000
    26  P    0.000000
    27  O    0.000000
    28  O    0.000000
    30  O    0.000000
    32  O    0.000000
    34  O   -0.000000
    37  O    0.000000
         Mulliken charges condensed to fragments:
      1      0.000000
      2      0.000000
      3     -0.000000
      4      0.000000
 Electronic spatial extent (au):  <R**2>=           7598.1177
 Charge=             -0.0000 electrons
 Dipole moment (field-independent basis, Debye):
    X=              0.9247    Y=              1.5107    Z=              1.1744  Tot=              2.1252
 Quadrupole moment (field-independent basis, Debye-Ang):
   XX=              7.3199   YY=             24.2266   ZZ=             11.9041
   XY=             21.1380   XZ=             13.9957   YZ=             23.5746
 Traceless Quadrupole moment (field-independent basis, Debye-Ang):
   XX=             -7.1636   YY=              9.7431   ZZ=             -2.5795
   XY=             21.1380   XZ=             13.9957   YZ=             23.5746
 Octapole moment (field-independent basis, Debye-Ang**2):
  XXX=             16.1083  YYY=            268.2153  ZZZ=             72.0765  XYY=            288.3834
  XXY=            164.8446  XXZ=             96.1473  XZZ=            117.0136  YZZ=            210.2380
  YYZ=            309.8430  XYZ=            231.9391
 Hexadecapole moment (field-independent basis, Debye-Ang**3):
 XXXX=           -439.5260 YYYY=           2224.9566 ZZZZ=            119.2774 XXXY=            856.0560
 XXXZ=            351.7945 YYYX=           3197.0187 YYYZ=           3357.3710 ZZZX=            678.1015
 ZZZY=           1414.4959 XXYY=           2269.3944 XXZZ=            735.1439 YYZZ=           2685.2542
 XXYZ=           1663.1971 YYXZ=           2929.4340 ZZXY=           1871.7212
 N-N= 9.064591854450D+00 E-N=-1.989741139020D+02  KE= 7.618094921219D+01
 No NMR shielding tensors so no spin-rotation constants.
 Leave Link  601 at Thu May 12 18:25:07 2022, MaxMem= 10485760000 cpu:               1.5 elap:               0.1
 (Enter /data0/hywu0/study/g16/l122.exe)
 CPIOFr:  IOpCl= 0 IRwI=-1 IRwCP=  731 ICalc=  7 LCPTot=      687630 Len1MO=     1809450 IndFrg=    15163230
 Counterpoise: doing calculation for fragment   4 using the basis set of the fragment.
 Leave Link  122 at Thu May 12 18:25:08 2022, MaxMem= 10485760000 cpu:               0.3 elap:               0.0
 (Enter /data0/hywu0/study/g16/l301.exe)
 Basis read from rwf:  (5D, 7F)
 No pseudopotential information found on rwf file.
    39 basis functions,    58 primitive gaussians,    41 cartesian basis functions
     5 alpha electrons        5 beta electrons
       nuclear repulsion energy         9.0606552722 Hartrees.
 IExCor= 4336 DFT=T Ex+Corr=M062X ExCW=0 ScaHFX=  0.540000
 ScaDFX=  1.000000  1.000000  1.000000  1.000000 ScalE2=  1.000000  1.000000
 IRadAn=      5 IRanWt=     -1 IRanGd=            0 ICorTp=0 IEmpDi=131
 NAtoms=   39 NActive=    3 NUniq=    3 SFac= 1.00D+00 NAtFMM=   60 NAOKFM=F Big=F
 Integral buffers will be    131072 words long.
 Raffenetti 2 integral format.
 Two-electron integral symmetry is turned off.
 R6Disp:  Grimme-D3 Dispersion energy=       -0.0000000082 Hartrees.
 Nuclear repulsion after empirical dispersion term =        9.0606552640 Hartrees.
 No density basis found on file   718.
 Leave Link  301 at Thu May 12 18:25:08 2022, MaxMem= 10485760000 cpu:               1.1 elap:               0.1
 (Enter /data0/hywu0/study/g16/l302.exe)
 NPDir=0 NMtPBC=     1 NCelOv=     1 NCel=       1 NClECP=     1 NCelD=      1
         NCelK=      1 NCelE2=     1 NClLst=     1 CellRange=     0.0.
 One-electron integrals computed using PRISM.
 NBasis=    39 RedAO= T EigKep=  3.11D-03  NBF=    39
 NBsUse=    39 1.00D-06 EigRej= -1.00D+00 NBFU=    39
 Precomputing XC quadrature grid using
 IXCGrd= 4 IRadAn=           5 IRanWt=          -1 IRanGd=           0 AccXCQ= 0.00D+00.
 Generated NRdTot=       0 NPtTot=           0 NUsed=           0 NTot=          32
 NSgBfM=    41    41    41    41    41 MxSgAt=     3 MxSgA2=     3.
 Leave Link  302 at Thu May 12 18:25:08 2022, MaxMem= 10485760000 cpu:               2.3 elap:               0.1
 (Enter /data0/hywu0/study/g16/l303.exe)
 DipDrv:  MaxL=1.
 Leave Link  303 at Thu May 12 18:25:08 2022, MaxMem= 10485760000 cpu:               0.7 elap:               0.0
 (Enter /data0/hywu0/study/g16/l401.exe)
 ExpMin= 8.45D-02 ExpMax= 8.59D+03 ExpMxC= 1.30D+03 IAcc=3 IRadAn=         5 AccDes= 0.00D+00
 Harris functional with IExCor= 1009 and IRadAn=       5 diagonalized for initial guess.
 HarFok:  IExCor= 1009 AccDes= 0.00D+00 IRadAn=         5 IDoV= 1 UseB2=F ITyADJ=14
 ICtDFT=  3500011 ScaDFX=  1.000000  1.000000  1.000000  1.000000
 FoFCou: FMM=F IPFlag=           0 FMFlag=      100000 FMFlg1=           0
         NFxFlg=           0 DoJE=T BraDBF=F KetDBF=T FulRan=T
         wScrn=  0.000000 ICntrl=       500 IOpCl=  0 I1Cent=   200000004 NGrid=           0
         NMat0=    1 NMatS0=      1 NMatT0=    0 NMatD0=    1 NMtDS0=    0 NMtDT0=    0
 Symmetry not used in FoFCou.
 Harris En= -76.4155305986141    
 JPrj=0 DoOrth=F DoCkMO=F.
 Leave Link  401 at Thu May 12 18:25:08 2022, MaxMem= 10485760000 cpu:               2.5 elap:               0.1
 (Enter /data0/hywu0/study/g16/l502.exe)
 Keep R1 ints in memory in canonical form, NReq=19316814.
 FoFCou: FMM=F IPFlag=           0 FMFlag=           0 FMFlg1=           0
         NFxFlg=           0 DoJE=F BraDBF=F KetDBF=F FulRan=T
         wScrn=  0.000000 ICntrl=       600 IOpCl=  0 I1Cent=           0 NGrid=           0
         NMat0=    1 NMatS0=    780 NMatT0=    0 NMatD0=    1 NMtDS0=    0 NMtDT0=    0
 Symmetry not used in FoFCou.
 Two-electron integral symmetry not used.
 Closed shell SCF:
 Using DIIS extrapolation, IDIIS=  1040.
 NGot= 10485760000 LenX= 10485449560 LenY= 10485447438
 Requested convergence on RMS density matrix=1.00D-08 within 128 cycles.
 Requested convergence on MAX density matrix=1.00D-06.
 Requested convergence on             energy=1.00D-06.
 No special actions if energy rises.
 Integral accuracy reduced to 1.0D-05 until final iterations.

 Cycle   1  Pass 0  IDiag  1:
 E= -76.3454980853925    
 DIIS: error= 6.99D-02 at cycle   1 NSaved=   1.
 NSaved= 1 IEnMin= 1 EnMin= -76.3454980853925     IErMin= 1 ErrMin= 6.99D-02
 ErrMax= 6.99D-02  0.00D+00 EMaxC= 1.00D-01 BMatC= 1.20D-01 BMatP= 1.20D-01
 IDIUse=3 WtCom= 3.01D-01 WtEn= 6.99D-01
 Coeff-Com:  0.100D+01
 Coeff-En:   0.100D+01
 Coeff:      0.100D+01
 Gap=     0.323 Goal=   None    Shift=    0.000
 GapD=    0.323 DampG=1.000 DampE=0.500 DampFc=0.5000 IDamp=-1.
 Damping current iteration by 5.00D-01
 RMSDP=7.90D-03 MaxDP=1.01D-01              OVMax= 1.68D-01

 Cycle   2  Pass 0  IDiag  1:
 E= -76.3767225024562     Delta-E=       -0.031224417064 Rises=F Damp=T
 DIIS: error= 1.10D-02 at cycle   2 NSaved=   2.
 NSaved= 2 IEnMin= 2 EnMin= -76.3767225024562     IErMin= 2 ErrMin= 1.10D-02
 ErrMax= 1.10D-02  0.00D+00 EMaxC= 1.00D-01 BMatC= 4.91D-03 BMatP= 1.20D-01
 IDIUse=3 WtCom= 8.90D-01 WtEn= 1.10D-01
 Coeff-Com:  0.846D-01 0.915D+00
 Coeff-En:   0.191D+00 0.809D+00
 Coeff:      0.963D-01 0.904D+00
 Gap=     0.456 Goal=   None    Shift=    0.000
 RMSDP=9.53D-04 MaxDP=1.42D-02 DE=-3.12D-02 OVMax= 1.01D-01

 Cycle   3  Pass 0  IDiag  1:
 E= -76.4207377253595     Delta-E=       -0.044015222903 Rises=F Damp=F
 DIIS: error= 2.22D-03 at cycle   3 NSaved=   3.
 NSaved= 3 IEnMin= 3 EnMin= -76.4207377253595     IErMin= 3 ErrMin= 2.22D-03
 ErrMax= 2.22D-03  0.00D+00 EMaxC= 1.00D-01 BMatC= 9.57D-05 BMatP= 4.91D-03
 IDIUse=3 WtCom= 9.78D-01 WtEn= 2.22D-02
 Coeff-Com: -0.202D-01 0.414D-01 0.979D+00
 Coeff-En:   0.000D+00 0.000D+00 0.100D+01
 Coeff:     -0.198D-01 0.405D-01 0.979D+00
 Gap=     0.460 Goal=   None    Shift=    0.000
 RMSDP=1.17D-04 MaxDP=1.11D-03 DE=-4.40D-02 OVMax= 3.39D-03

 Cycle   4  Pass 0  IDiag  1:
 E= -76.4208190950276     Delta-E=       -0.000081369668 Rises=F Damp=F
 DIIS: error= 4.23D-04 at cycle   4 NSaved=   4.
 NSaved= 4 IEnMin= 4 EnMin= -76.4208190950276     IErMin= 4 ErrMin= 4.23D-04
 ErrMax= 4.23D-04  0.00D+00 EMaxC= 1.00D-01 BMatC= 3.47D-06 BMatP= 9.57D-05
 IDIUse=3 WtCom= 9.96D-01 WtEn= 4.23D-03
 Coeff-Com: -0.207D-02-0.207D-02 0.166D+00 0.838D+00
 Coeff-En:   0.000D+00 0.000D+00 0.000D+00 0.100D+01
 Coeff:     -0.206D-02-0.206D-02 0.165D+00 0.839D+00
 Gap=     0.461 Goal=   None    Shift=    0.000
 RMSDP=2.25D-05 MaxDP=3.57D-04 DE=-8.14D-05 OVMax= 5.46D-04

 Cycle   5  Pass 0  IDiag  1:
 E= -76.4208212383723     Delta-E=       -0.000002143345 Rises=F Damp=F
 DIIS: error= 9.23D-05 at cycle   5 NSaved=   5.
 NSaved= 5 IEnMin= 5 EnMin= -76.4208212383723     IErMin= 5 ErrMin= 9.23D-05
 ErrMax= 9.23D-05  0.00D+00 EMaxC= 1.00D-01 BMatC= 8.84D-08 BMatP= 3.47D-06
 IDIUse=1 WtCom= 1.00D+00 WtEn= 0.00D+00
 Coeff-Com:  0.121D-02-0.185D-02-0.371D-01-0.713D-01 0.111D+01
 Coeff:      0.121D-02-0.185D-02-0.371D-01-0.713D-01 0.111D+01
 Gap=     0.461 Goal=   None    Shift=    0.000
 RMSDP=9.25D-06 MaxDP=1.05D-04 DE=-2.14D-06 OVMax= 2.10D-04

 Initial convergence to 1.0D-05 achieved.  Increase integral accuracy.
 Cycle   6  Pass 1  IDiag  1:
 E= -76.4208230803574     Delta-E=       -0.000001841985 Rises=F Damp=F
 DIIS: error= 2.47D-05 at cycle   1 NSaved=   1.
 NSaved= 1 IEnMin= 1 EnMin= -76.4208230803574     IErMin= 1 ErrMin= 2.47D-05
 ErrMax= 2.47D-05  0.00D+00 EMaxC= 1.00D-01 BMatC= 2.24D-08 BMatP= 2.24D-08
 IDIUse=1 WtCom= 1.00D+00 WtEn= 0.00D+00
 Coeff-Com:  0.100D+01
 Coeff:      0.100D+01
 Gap=     0.461 Goal=   None    Shift=    0.000
 RMSDP=9.25D-06 MaxDP=1.05D-04 DE=-1.84D-06 OVMax= 5.63D-05

 Cycle   7  Pass 1  IDiag  1:
 E= -76.4208230989486     Delta-E=       -0.000000018591 Rises=F Damp=F
 DIIS: error= 1.06D-05 at cycle   2 NSaved=   2.
 NSaved= 2 IEnMin= 2 EnMin= -76.4208230989486     IErMin= 2 ErrMin= 1.06D-05
 ErrMax= 1.06D-05  0.00D+00 EMaxC= 1.00D-01 BMatC= 1.65D-09 BMatP= 2.24D-08
 IDIUse=1 WtCom= 1.00D+00 WtEn= 0.00D+00
 Coeff-Com:  0.544D-01 0.946D+00
 Coeff:      0.544D-01 0.946D+00
 Gap=     0.461 Goal=   None    Shift=    0.000
 RMSDP=8.58D-07 MaxDP=1.34D-05 DE=-1.86D-08 OVMax= 2.34D-05

 Cycle   8  Pass 1  IDiag  1:
 E= -76.4208230992774     Delta-E=       -0.000000000329 Rises=F Damp=F
 DIIS: error= 7.78D-06 at cycle   3 NSaved=   3.
 NSaved= 3 IEnMin= 3 EnMin= -76.4208230992774     IErMin= 3 ErrMin= 7.78D-06
 ErrMax= 7.78D-06  0.00D+00 EMaxC= 1.00D-01 BMatC= 1.61D-09 BMatP= 1.65D-09
 IDIUse=1 WtCom= 1.00D+00 WtEn= 0.00D+00
 Coeff-Com: -0.447D-01 0.510D+00 0.535D+00
 Coeff:     -0.447D-01 0.510D+00 0.535D+00
 Gap=     0.461 Goal=   None    Shift=    0.000
 RMSDP=4.53D-07 MaxDP=6.12D-06 DE=-3.29D-10 OVMax= 1.10D-05

 Cycle   9  Pass 1  IDiag  1:
 E= -76.4208231003423     Delta-E=       -0.000000001065 Rises=F Damp=F
 DIIS: error= 8.40D-07 at cycle   4 NSaved=   4.
 NSaved= 4 IEnMin= 4 EnMin= -76.4208231003423     IErMin= 4 ErrMin= 8.40D-07
 ErrMax= 8.40D-07  0.00D+00 EMaxC= 1.00D-01 BMatC= 7.48D-12 BMatP= 1.61D-09
 IDIUse=1 WtCom= 1.00D+00 WtEn= 0.00D+00
 Coeff-Com: -0.374D-02-0.115D-01 0.255D-01 0.990D+00
 Coeff:     -0.374D-02-0.115D-01 0.255D-01 0.990D+00
 Gap=     0.461 Goal=   None    Shift=    0.000
 RMSDP=8.33D-08 MaxDP=6.54D-07 DE=-1.06D-09 OVMax= 1.82D-06

 Cycle  10  Pass 1  IDiag  1:
 E= -76.4208231003543     Delta-E=       -0.000000000012 Rises=F Damp=F
 DIIS: error= 1.32D-07 at cycle   5 NSaved=   5.
 NSaved= 5 IEnMin= 5 EnMin= -76.4208231003543     IErMin= 5 ErrMin= 1.32D-07
 ErrMax= 1.32D-07  0.00D+00 EMaxC= 1.00D-01 BMatC= 4.54D-13 BMatP= 7.48D-12
 IDIUse=1 WtCom= 1.00D+00 WtEn= 0.00D+00
 Coeff-Com:  0.319D-02-0.416D-01-0.379D-01 0.729D-01 0.100D+01
 Coeff:      0.319D-02-0.416D-01-0.379D-01 0.729D-01 0.100D+01
 Gap=     0.461 Goal=   None    Shift=    0.000
 RMSDP=2.82D-08 MaxDP=2.51D-07 DE=-1.21D-11 OVMax= 6.92D-07

 Cycle  11  Pass 1  IDiag  1:
 E= -76.4208231003554     Delta-E=       -0.000000000001 Rises=F Damp=F
 DIIS: error= 1.17D-08 at cycle   6 NSaved=   6.
 NSaved= 6 IEnMin= 6 EnMin= -76.4208231003554     IErMin= 6 ErrMin= 1.17D-08
 ErrMax= 1.17D-08  0.00D+00 EMaxC= 1.00D-01 BMatC= 3.76D-15 BMatP= 4.54D-13
 IDIUse=1 WtCom= 1.00D+00 WtEn= 0.00D+00
 Coeff-Com:  0.151D-04 0.675D-03 0.455D-03-0.144D-01-0.697D-01 0.108D+01
 Coeff:      0.151D-04 0.675D-03 0.455D-03-0.144D-01-0.697D-01 0.108D+01
 Gap=     0.461 Goal=   None    Shift=    0.000
 RMSDP=3.92D-09 MaxDP=3.18D-08 DE=-1.04D-12 OVMax= 8.17D-08

 SCF Done:  E(RM062X) =  -76.4208231004     A.U. after   11 cycles
            NFock= 11  Conv=0.39D-08     -V/T= 2.0032
 KE= 7.618020258727D+01 PE=-1.989665841417D+02 EE= 3.730490319011D+01
 Leave Link  502 at Thu May 12 18:25:08 2022, MaxMem= 10485760000 cpu:               9.3 elap:               0.4
 (Enter /data0/hywu0/study/g16/l601.exe)
 Copying SCF densities to generalized density rwf, IOpCl= 0 IROHF=0.

 **********************************************************************

            Population analysis using the SCF density.

 **********************************************************************

 Alpha  occ. eigenvalues --  -19.62652  -1.13136  -0.60618  -0.47364  -0.39935
 Alpha virt. eigenvalues --    0.06139   0.13245   0.17408   0.17955   0.18952
 Alpha virt. eigenvalues --    0.23287   0.50005   0.53889   0.97839   1.00484
 Alpha virt. eigenvalues --    1.06018   1.18783   1.19712   1.32478   1.34106
 Alpha virt. eigenvalues --    1.69019   1.73593   1.75766   2.06153   2.10066
 Alpha virt. eigenvalues --    2.34925   2.41835   2.54139   2.87209   3.01188
 Alpha virt. eigenvalues --    5.05662   5.46526   5.91310   6.78236   6.80321
 Alpha virt. eigenvalues --    6.87083   6.91345   7.09949  49.95524
          Condensed to atoms (all electrons):
              37         38         39
    37  O    7.920415   0.315621   0.323310
    38  H    0.315621   0.425406  -0.024145
    39  H    0.323310  -0.024145   0.424607
 Mulliken charges:
               1
     1  C    0.000000
     2  C    0.000000
     3  C    0.000000
     4  N    0.000000
     5  H    0.000000
     6  H    0.000000
     7  H    0.000000
     8  C    0.000000
     9  H    0.000000
    10  H    0.000000
    11  H    0.000000
    12  N    0.000000
    13  C    0.000000
    14  H    0.000000
    15  H    0.000000
    16  C    0.000000
    17  H    0.000000
    18  H    0.000000
    19  C    0.000000
    20  H    0.000000
    21  H    0.000000
    22  S    0.000000
    23  O    0.000000
    24  O    0.000000
    25  O    0.000000
    26  P    0.000000
    27  O    0.000000
    28  O    0.000000
    29  H    0.000000
    30  O    0.000000
    31  H    0.000000
    32  O    0.000000
    33  H    0.000000
    34  O    0.000000
    35  H    0.000000
    36  H    0.000000
    37  O   -0.559346
    38  H    0.283118
    39  H    0.276229
 Sum of Mulliken charges =   0.00000
 Mulliken charges with hydrogens summed into heavy atoms:
               1
     1  C    0.000000
     2  C    0.000000
     3  C    0.000000
     4  N    0.000000
     8  C    0.000000
    12  N    0.000000
    13  C    0.000000
    16  C    0.000000
    19  C    0.000000
    22  S    0.000000
    23  O    0.000000
    24  O    0.000000
    25  O    0.000000
    26  P    0.000000
    27  O    0.000000
    28  O    0.000000
    30  O    0.000000
    32  O    0.000000
    34  O    0.000000
    37  O    0.000000
         Mulliken charges condensed to fragments:
      1      0.000000
      2      0.000000
      3      0.000000
      4      0.000000
 Electronic spatial extent (au):  <R**2>=           9831.1170
 Charge=              0.0000 electrons
 Dipole moment (field-independent basis, Debye):
    X=              0.8282    Y=              1.9292    Z=             -0.2530  Tot=              2.1146
 Quadrupole moment (field-independent basis, Debye-Ang):
   XX=              6.5867   YY=             37.4099   ZZ=            -12.8568
   XY=             21.7109   XZ=              6.5473   YZ=             16.5641
 Traceless Quadrupole moment (field-independent basis, Debye-Ang):
   XX=             -3.7933   YY=             27.0300   ZZ=            -23.2367
   XY=             21.7109   XZ=              6.5473   YZ=             16.5641
 Octapole moment (field-independent basis, Debye-Ang**2):
  XXX=             21.5782  YYY=            531.0429  ZZZ=           -312.9758  XYY=            342.7393
  XXY=            154.2703  XXZ=             53.2003  XZZ=             -4.4537  YZZ=             50.7058
  YYZ=            343.8840  XYZ=            198.3219
 Hexadecapole moment (field-independent basis, Debye-Ang**3):
 XXXX=           -205.4835 YYYY=           6468.9747 ZZZZ=          -5825.0166 XXXY=            765.4990
 XXXZ=            118.6339 YYYX=           4509.0469 YYYZ=           4966.1976 ZZZX=          -1290.9516
 ZZZY=          -1554.4636 XXYY=           2355.7421 XXZZ=             48.0202 YYZZ=           2148.5444
 XXYZ=           1404.6513 YYXZ=           3218.3486 ZZXY=           1204.1776
 N-N= 9.060655263986D+00 E-N=-1.989665842051D+02  KE= 7.618020258727D+01
 No NMR shielding tensors so no spin-rotation constants.
 Leave Link  601 at Thu May 12 18:25:08 2022, MaxMem= 10485760000 cpu:               1.5 elap:               0.1
 (Enter /data0/hywu0/study/g16/l122.exe)
 CPIOFr:  IOpCl= 0 IRwI=-1 IRwCP=  731 ICalc=  8 LCPTot=      687630 Len1MO=     1809450 IndFrg=    16972680
 Restoring MOs from calculation   1 to rwf.
 CPIOFr:  IOpCl= 0 IRwI=-2 IRwCP=  731 ICalc=  0 LCPTot=      687630 Len1MO=     1809450 IndFrg=     2497080
 Counterpoise corrected energy =   -1804.305384140734
                   BSSE energy =       0.006469229174
              sum of fragments =   -1804.199624164647
           complexation energy =     -70.42 kcal/mole (raw)
           complexation energy =     -66.37 kcal/mole (corrected)
 Leave Link  122 at Thu May 12 18:25:08 2022, MaxMem= 10485760000 cpu:               0.7 elap:               0.0
 (Enter /data0/hywu0/study/g16/l9999.exe)
 1\1\GINC-LOCALHOST\SP\RM062X\6-311+G(2d,p)\C7H19N2O9P1S1\HYWU0\12-May-
 2022\0\\#p M062X/6-311+G(2d,p) nosymm em=GD3 counterpoise=4\\Title Car
 d Required\\0,1\C,0,10.635749,8.308323,11.428991\C,0,11.648809,9.26019
 ,11.418389\C,0,9.692951,10.327859,11.741352\N,0,9.436633,8.98832,11.63
 2562\H,0,10.686906,7.239698,11.272076\H,0,12.70019,9.138157,11.247265\
 H,0,8.94435,11.113031,11.862163\C,0,8.10557,8.409136,11.624112\H,0,8.1
 32789,7.346635,11.295528\H,0,7.635536,8.468678,12.618194\H,0,7.451821,
 8.939376,10.885395\N,0,11.049246,10.505961,11.623857\C,0,11.721913,11.
 804598,11.544596\H,0,12.445425,11.873919,12.389833\H,0,10.962768,12.61
 5042,11.689885\C,0,12.46014,12.016393,10.201987\H,0,13.323012,12.69012
 2,10.384073\H,0,12.905313,11.054755,9.856351\C,0,11.589332,12.60847,9.
 096266\H,0,12.182124,12.751518,8.174532\H,0,11.217033,13.610724,9.3710
 88\S,0,10.183836,11.532708,8.744422\O,0,9.58356,11.855427,7.450546\O,0
 ,10.745595,10.162721,8.856735\O,0,9.264002,11.838116,9.898127\P,0,9.12
 3484,7.016339,8.185167\O,0,9.613684,6.209003,9.300606\O,0,7.901637,7.8
 94052,8.696073\H,0,7.642268,8.654725,8.041825\O,0,10.122974,7.956047,7
 .402511\H,0,10.410441,8.777952,8.012083\O,0,8.566274,6.090978,7.009991
 \H,0,8.52484,6.646337,6.146667\O,0,7.111406,10.242216,7.385558\H,0,7.8
 93805,10.781262,7.167611\H,0,6.851857,10.554925,8.263571\O,0,6.711013,
 11.182545,10.144183\H,0,7.667157,11.442221,10.055757\H,0,6.23457,12.00
 1537,10.09009\\Version=ES64L-G16RevA.03\HF=-76.4208231\RMSD=3.921e-09\
 Dipole=1.9007993,2.852296,2.8329641\Quadrupole=-16.6928,2.8520669,13.8
 407332,91.5981496,87.0015495,106.9828284\PG=C01 [X(C7H19N2O9P1S1)]\\@


 HONESTY IN A LAWYER IS LIKE A HEN'S HIND LEGS.
  -- MAGNUS OLESON, LAKE WOBEGON PATRIARCH, C.1875
 Job cpu time:       0 days  5 hours 50 minutes 49.7 seconds.
 Elapsed time:       0 days  0 hours 16 minutes  2.8 seconds.
 File lengths (MBytes):  RWF=    405 Int=      0 D2E=      0 Chk=    155 Scr=      1
 Normal termination of Gaussian 16 at Thu May 12 18:25:09 2022.
