 Entering Gaussian System, Link 0=g16
 Initial command:
 /data0/hywu0/study/g16/l1.exe "/data0/hywu0/study/g16/scratch/Gau-1331747.inp" -scrdir="/data0/hywu0/study/g16/scratch/"
 Default is to use a total of  16 processors:
                               16 via shared-memory
                                1 via Linda
 Entering Link 1 = /data0/hywu0/study/g16/l1.exe PID=   1331748.
  
 Copyright (c) 1988,1990,1992,1993,1995,1998,2003,2009,2016,
            Gaussian, Inc.  All Rights Reserved.
  
 This is part of the Gaussian(R) 16 program.  It is based on
 the Gaussian(R) 09 system (copyright 2009, Gaussian, Inc.),
 the Gaussian(R) 03 system (copyright 2003, Gaussian, Inc.),
 the Gaussian(R) 98 system (copyright 1998, Gaussian, Inc.),
 the Gaussian(R) 94 system (copyright 1995, Gaussian, Inc.),
 the Gaussian 92(TM) system (copyright 1992, Gaussian, Inc.),
 the Gaussian 90(TM) system (copyright 1990, Gaussian, Inc.),
 the Gaussian 88(TM) system (copyright 1988, Gaussian, Inc.),
 the Gaussian 86(TM) system (copyright 1986, Carnegie Mellon
 University), and the Gaussian 82(TM) system (copyright 1983,
 Carnegie Mellon University). Gaussian is a federally registered
 trademark of Gaussian, Inc.
  
 This software contains proprietary and confidential information,
 including trade secrets, belonging to Gaussian, Inc.
  
 This software is provided under written license and may be
 used, copied, transmitted, or stored only in accord with that
 written license.
  
 The following legend is applicable only to US Government
 contracts under FAR:
  
                    RESTRICTED RIGHTS LEGEND
  
 Use, reproduction and disclosure by the US Government is
 subject to restrictions as set forth in subparagraphs (a)
 and (c) of the Commercial Computer Software - Restricted
 Rights clause in FAR 52.227-19.
  
 Gaussian, Inc.
 340 Quinnipiac St., Bldg. 40, Wallingford CT 06492
  
  
 ---------------------------------------------------------------
 Warning -- This program may not be used in any manner that
 competes with the business of Gaussian, Inc. or will provide
 assistance to any competitor of Gaussian, Inc.  The licensee
 of this program is prohibited from giving any competitor of
 Gaussian, Inc. access to this program.  By using this program,
 the user acknowledges that Gaussian, Inc. is engaged in the
 business of creating and licensing software in the field of
 computational chemistry and represents and warrants to the
 licensee that it is not a competitor of Gaussian, Inc. and that
 it will not use this program in any manner prohibited above.
 ---------------------------------------------------------------
  

 Cite this work as:
 Gaussian 16, Revision A.03,
 M. J. Frisch, G. W. Trucks, H. B. Schlegel, G. E. Scuseria, 
 M. A. Robb, J. R. Cheeseman, G. Scalmani, V. Barone, 
 G. A. Petersson, H. Nakatsuji, X. Li, M. Caricato, A. V. Marenich, 
 J. Bloino, B. G. Janesko, R. Gomperts, B. Mennucci, H. P. Hratchian, 
 J. V. Ortiz, A. F. Izmaylov, J. L. Sonnenberg, D. Williams-Young, 
 F. Ding, F. Lipparini, F. Egidi, J. Goings, B. Peng, A. Petrone, 
 T. Henderson, D. Ranasinghe, V. G. Zakrzewski, J. Gao, N. Rega, 
 G. Zheng, W. Liang, M. Hada, M. Ehara, K. Toyota, R. Fukuda, 
 J. Hasegawa, M. Ishida, T. Nakajima, Y. Honda, O. Kitao, H. Nakai, 
 T. Vreven, K. Throssell, J. A. Montgomery, Jr., J. E. Peralta, 
 F. Ogliaro, M. J. Bearpark, J. J. Heyd, E. N. Brothers, K. N. Kudin, 
 V. N. Staroverov, T. A. Keith, R. Kobayashi, J. Normand, 
 K. Raghavachari, A. P. Rendell, J. C. Burant, S. S. Iyengar, 
 J. Tomasi, M. Cossi, J. M. Millam, M. Klene, C. Adamo, R. Cammi, 
 J. W. Ochterski, R. L. Martin, K. Morokuma, O. Farkas, 
 J. B. Foresman, and D. J. Fox, Gaussian, Inc., Wallingford CT, 2016.
 
 ******************************************
 Gaussian 16:  ES64L-G16RevA.03 25-Dec-2016
                12-May-2022 
 ******************************************
 %nproc=16
 Will use up to   16 processors via shared memory.
 %mem=40000MB
 ---------------------------------------------------
 #p M062X/6-311+G(2d,p) nosymm em=GD3 counterpoise=3
 ---------------------------------------------------
 1/38=1,62=3,172=1/1;
 2/12=2,15=1,17=6,18=5,40=1/2;
 1/38=1,53=2,62=3,63=1/22;
 3/5=4,6=6,7=112,11=2,25=1,30=1,74=-55,124=31/1,2,3;
 4//1;
 5/5=2,38=5/2;
 6/7=2,8=2,9=2,10=2,28=1/1;
 1/53=2,62=3,63=1/22;
 3/5=7,6=11,7=112,11=2,25=1,30=1,74=-55,82=7,124=31/1,2,3;
 4//1;
 5/5=2,38=5/2;
 6/7=2,8=2,9=2,10=2,28=1/1;
 1/53=2,62=3,63=1/22(-4);
 99/5=1,9=1/99;
 Leave Link    1 at Thu May 12 12:47:25 2022, MaxMem=  5242880000 cpu:               0.5 elap:               0.0
 (Enter /data0/hywu0/study/g16/l101.exe)
 -------------------
 Title Card Required
 -------------------
 Symbolic Z-matrix:
 Charge =  0 Multiplicity = 1 in supermolecule
 Charge =  0 Multiplicity = 1 in fragment      1.
 Charge =  0 Multiplicity = 1 in fragment      2.
 Charge =  0 Multiplicity = 1 in fragment      3.
 C                     13.01932   7.60093   13.72374    
 C                     14.10783   8.3865    13.36933    
 C                     12.66447   9.67732   14.52369    
 N                     12.14307   8.41507   14.44362    
 H                     12.80082   6.56953   13.48725    
 H                     14.96735   8.14094   12.7774    
 H                     12.18139   10.54253   14.98218    
 C                     10.81339   8.05396   14.90176    
 H                     10.62494   6.96806   14.76845    
 H                     10.66748   8.31844   15.96042    
 H                     10.04072   8.58225   14.28617    
 N                     13.88039   9.66807   13.88494    
 C                     14.68132   10.86053   13.60181    
 H                     15.69195   10.71718   14.04943    
 H                     14.21213   11.73968   14.11021    
 C                     14.81111   11.14551   12.08782    
 H                     15.7534   11.70801   11.92222    
 H                     14.93717   10.18925   11.52932    
 C                     13.64681   11.9368   11.50239    
 H                     13.83134   12.16031   10.4362    
 H                     13.53192   12.9151   11.99802    
 S                     12.08515   11.02376   11.64179    
 O                     11.15274   11.56471   10.6395    
 O                     12.49308   9.60899   11.38143    
 O                     11.70235   11.23362   13.05869    
 P                     10.09592   7.00654   11.29628    
 O                     10.61464   6.20854   12.40722    
 O                     9.18409   8.17602   11.86485    
 H                     9.00255   8.90583   11.14351    
 O                     11.10234   7.63341   10.25447    
 H                     11.70296   8.39011   10.73155    
 O                     9.1632    6.10796   10.35922    
 H                     9.12808   6.52775   9.42539    
 O                     8.82683   10.26561   9.9719     
 H                     9.56832   10.85273   10.26476    
 H                     9.10944   9.9885    9.10308    
 
 ITRead=  0  0  0  0  0  0  0  0  0  0  0  0  0  0  0  0  0  0  0  0
 ITRead=  0  0  0  0  0  0  0  0  0  0  0  0  0  0  0  0
 MicOpt= -1 -1 -1 -1 -1 -1 -1 -1 -1 -1 -1 -1 -1 -1 -1 -1 -1 -1 -1 -1
 MicOpt= -1 -1 -1 -1 -1 -1 -1 -1 -1 -1 -1 -1 -1 -1 -1 -1
 NAtoms=     36 NQM=       36 NQMF=       0 NMMI=      0 NMMIF=      0
                NMic=       0 NMicF=      0.
                    Isotopes and Nuclear Properties:
 (Nuclear quadrupole moments (NQMom) in fm**2, nuclear magnetic moments (NMagM)
  in nuclear magnetons)

  Atom         1           2           3           4           5           6           7           8           9          10
 IAtWgt=          12          12          12          14           1           1           1          12           1           1
 AtmWgt=  12.0000000  12.0000000  12.0000000  14.0030740   1.0078250   1.0078250   1.0078250  12.0000000   1.0078250   1.0078250
 NucSpn=           0           0           0           2           1           1           1           0           1           1
 AtZEff=  -0.0000000  -0.0000000  -0.0000000  -0.0000000  -0.0000000  -0.0000000  -0.0000000  -0.0000000  -0.0000000  -0.0000000
 NQMom=    0.0000000   0.0000000   0.0000000   2.0440000   0.0000000   0.0000000   0.0000000   0.0000000   0.0000000   0.0000000
 NMagM=    0.0000000   0.0000000   0.0000000   0.4037610   2.7928460   2.7928460   2.7928460   0.0000000   2.7928460   2.7928460
 AtZNuc=   6.0000000   6.0000000   6.0000000   7.0000000   1.0000000   1.0000000   1.0000000   6.0000000   1.0000000   1.0000000

  Atom        11          12          13          14          15          16          17          18          19          20
 IAtWgt=           1          14          12           1           1          12           1           1          12           1
 AtmWgt=   1.0078250  14.0030740  12.0000000   1.0078250   1.0078250  12.0000000   1.0078250   1.0078250  12.0000000   1.0078250
 NucSpn=           1           2           0           1           1           0           1           1           0           1
 AtZEff=  -0.0000000  -0.0000000  -0.0000000  -0.0000000  -0.0000000  -0.0000000  -0.0000000  -0.0000000  -0.0000000  -0.0000000
 NQMom=    0.0000000   2.0440000   0.0000000   0.0000000   0.0000000   0.0000000   0.0000000   0.0000000   0.0000000   0.0000000
 NMagM=    2.7928460   0.4037610   0.0000000   2.7928460   2.7928460   0.0000000   2.7928460   2.7928460   0.0000000   2.7928460
 AtZNuc=   1.0000000   7.0000000   6.0000000   1.0000000   1.0000000   6.0000000   1.0000000   1.0000000   6.0000000   1.0000000

  Atom        21          22          23          24          25          26          27          28          29          30
 IAtWgt=           1          32          16          16          16          31          16          16           1          16
 AtmWgt=   1.0078250  31.9720718  15.9949146  15.9949146  15.9949146  30.9737634  15.9949146  15.9949146   1.0078250  15.9949146
 NucSpn=           1           0           0           0           0           1           0           0           1           0
 AtZEff=  -0.0000000  -0.0000000  -0.0000000  -0.0000000  -0.0000000  -0.0000000  -0.0000000  -0.0000000  -0.0000000  -0.0000000
 NQMom=    0.0000000   0.0000000   0.0000000   0.0000000   0.0000000   0.0000000   0.0000000   0.0000000   0.0000000   0.0000000
 NMagM=    2.7928460   0.0000000   0.0000000   0.0000000   0.0000000   1.1316000   0.0000000   0.0000000   2.7928460   0.0000000
 AtZNuc=   1.0000000  16.0000000   8.0000000   8.0000000   8.0000000  15.0000000   8.0000000   8.0000000   1.0000000   8.0000000

  Atom        31          32          33          34          35          36
 IAtWgt=           1          16           1          16           1           1
 AtmWgt=   1.0078250  15.9949146   1.0078250  15.9949146   1.0078250   1.0078250
 NucSpn=           1           0           1           0           1           1
 AtZEff=  -0.0000000  -0.0000000  -0.0000000  -0.0000000  -0.0000000  -0.0000000
 NQMom=    0.0000000   0.0000000   0.0000000   0.0000000   0.0000000   0.0000000
 NMagM=    2.7928460   0.0000000   2.7928460   0.0000000   2.7928460   2.7928460
 AtZNuc=   1.0000000   8.0000000   1.0000000   8.0000000   1.0000000   1.0000000
 Leave Link  101 at Thu May 12 12:47:25 2022, MaxMem=  5242880000 cpu:               1.5 elap:               0.1
 (Enter /data0/hywu0/study/g16/l202.exe)
                          Input orientation:                          
 ---------------------------------------------------------------------
 Center     Atomic      Atomic             Coordinates (Angstroms)
 Number     Number       Type             X           Y           Z
 ---------------------------------------------------------------------
      1          6           0       13.019317    7.600925   13.723741
      2          6           0       14.107830    8.386505   13.369330
      3          6           0       12.664473    9.677322   14.523689
      4          7           0       12.143072    8.415066   14.443624
      5          1           0       12.800820    6.569532   13.487250
      6          1           0       14.967352    8.140943   12.777405
      7          1           0       12.181389   10.542534   14.982180
      8          6           0       10.813392    8.053957   14.901764
      9          1           0       10.624942    6.968061   14.768453
     10          1           0       10.667483    8.318435   15.960416
     11          1           0       10.040719    8.582247   14.286169
     12          7           0       13.880392    9.668066   13.884937
     13          6           0       14.681323   10.860533   13.601814
     14          1           0       15.691953   10.717184   14.049426
     15          1           0       14.212132   11.739681   14.110209
     16          6           0       14.811109   11.145510   12.087824
     17          1           0       15.753402   11.708007   11.922217
     18          1           0       14.937165   10.189252   11.529317
     19          6           0       13.646809   11.936798   11.502390
     20          1           0       13.831339   12.160308   10.436197
     21          1           0       13.531922   12.915099   11.998018
     22         16           0       12.085150   11.023759   11.641790
     23          8           0       11.152739   11.564715   10.639504
     24          8           0       12.493082    9.608985   11.381433
     25          8           0       11.702353   11.233616   13.058693
     26         15           0       10.095917    7.006538   11.296277
     27          8           0       10.614643    6.208537   12.407217
     28          8           0        9.184088    8.176025   11.864852
     29          1           0        9.002549    8.905827   11.143513
     30          8           0       11.102335    7.633407   10.254473
     31          1           0       11.702962    8.390108   10.731550
     32          8           0        9.163202    6.107958   10.359215
     33          1           0        9.128078    6.527746    9.425385
     34          8           0        8.826825   10.265605    9.971905
     35          1           0        9.568321   10.852727   10.264758
     36          1           0        9.109442    9.988498    9.103083
 ---------------------------------------------------------------------
                    Distance matrix (angstroms):
                    1          2          3          4          5
     1  C    0.000000
     2  C    1.388382   0.000000
     3  C    2.253277   2.254336   0.000000
     4  N    1.396017   2.239464   1.368050   0.000000
     5  H    1.080482   2.241332   3.278895   2.180202   0.000000
     6  H    2.232042   1.072126   3.273106   3.290591   2.768948
     7  H    3.307394   3.310728   1.091868   2.194910   4.289902
     8  C    2.541472   3.648598   2.490935   1.452013   2.855563
     9  H    2.687931   4.012485   3.399955   2.122276   2.556316
    10  H    3.323952   4.307476   2.810467   2.118339   3.704907
    11  H    3.186121   4.173763   2.853014   2.114859   3.508198
    12  N    2.245107   1.399992   1.373517   2.213689   3.305230
    13  C    3.660898   2.550247   2.513469   3.623765   4.686375
    14  H    4.118267   2.898972   3.236027   4.248493   5.087014
    15  H    4.324519   3.435632   2.611425   3.930043   5.395398
    16  C    4.295442   3.122334   3.563293   4.485927   5.190301
    17  H    5.252507   3.979249   4.520268   5.498676   6.129518
    18  H    3.897829   2.706167   3.793872   4.409975   4.636792
    19  C    4.912020   4.037646   3.898521   4.828528   5.784714
    20  H    5.679375   4.787620   4.922843   5.739038   6.451951
    21  H    5.610822   4.766585   4.196985   5.306618   6.558852
    22  S    4.113755   3.745763   3.233241   3.828695   4.874222
    23  O    5.358009   5.126942   4.575422   5.037100   5.981445
    24  O    3.129798   2.837887   3.147669   3.305293   3.710450
    25  O    3.920858   3.740168   2.343915   3.171197   4.810818
    26  P    3.846056   4.722002   4.913935   4.010061   3.508253
    27  O    3.074807   4.227477   4.551233   3.369246   2.464987
    28  O    4.300603   5.152765   4.629945   3.932276   4.277119
    29  H    4.949219   5.593554   5.042864   4.581972   5.037682
    30  O    3.963798   4.393460   4.984383   4.386697   3.803620
    31  H    3.362857   3.569494   4.118463   3.738156   3.480470
    32  O    5.330911   6.221086   6.507081   5.557407   4.819743
    33  H    5.896551   6.618732   6.958349   6.151007   5.476269
    34  O    6.225254   6.554581   5.982671   5.866708   6.466161
    35  H    5.869255   6.027251   5.395019   5.480370   6.259334
    36  H    6.506774   6.763958   6.489842   6.340345   6.673569
                    6          7          8          9         10
     6  H    0.000000
     7  H    4.288387   0.000000
     8  C    4.666460   2.840933   0.000000
     9  H    4.918989   3.904493   1.110160   0.000000
    10  H    5.352750   2.862774   1.100901   1.801692   0.000000
    11  H    5.171347   2.984899   1.120300   1.783118   1.807079
    12  N    2.177203   2.203463   3.611893   4.320715   4.056094
    13  C    2.856157   2.873361   4.952538   5.741656   5.304355
    14  H    2.963124   3.636563   5.623132   6.344094   5.886525
    15  H    3.911220   2.513446   5.075683   6.005795   5.262388
    16  C    3.086642   3.956805   5.784263   6.493138   6.337110
    17  H    3.751422   4.845717   6.828871   7.541170   7.325491
    18  H    2.398792   4.431859   5.739197   6.281985   6.431546
    19  C    4.216398   4.024968   5.887313   6.669872   6.468611
    20  H    4.788223   5.099558   6.775796   7.483906   7.435521
    21  H    5.045837   4.044530   6.281150   7.175870   6.710807
    22  S    4.231706   3.376247   4.589610   5.325121   5.289526
    23  O    5.553747   4.578407   5.532399   6.201292   6.251873
    24  O    3.197796   3.732833   4.199071   4.683624   5.095627
    25  O    4.505992   2.099255   3.781189   4.720069   4.241372
    26  P    5.216464   5.517095   3.822485   3.512457   4.878725
    27  O    4.776747   5.279077   3.109315   2.480407   4.132758
    28  O    5.854923   4.929697   3.448531   3.459210   4.358255
    29  H    6.231655   5.245874   4.257850   4.418969   5.130262
    30  O    4.643397   5.654962   4.675218   4.587658   5.763345
    31  H    3.860550   4.788495   4.277267   4.413721   5.330890
    32  O    6.608239   7.081435   5.210066   4.724176   6.206651
    33  H    6.923551   7.504612   5.929615   5.566224   6.948594
    34  O    7.077506   6.035946   5.756852   6.092117   6.560622
    35  H    6.543447   5.401705   5.557440   6.040724   6.330191
    36  H    7.157458   6.656395   6.345912   6.596681   7.227698
                   11         12         13         14         15
    11  H    0.000000
    12  N    4.010371   0.000000
    13  C    5.214800   1.464113   0.000000
    14  H    6.045697   2.099871   1.114575   0.000000
    15  H    5.234600   2.110068   1.118708   1.799740   0.000000
    16  C    5.844626   2.505731   1.546034   2.192540   2.191313
    17  H    6.927726   3.394377   2.165320   2.347451   2.676532
    18  H    5.844474   2.633885   2.193471   2.683164   3.096854
    19  C    5.657413   3.298217   2.576072   3.486756   2.675662
    20  H    6.480247   4.255289   3.526049   4.312762   3.717566
    21  H    6.016456   3.771620   2.848601   3.702005   2.511104
    22  S    4.139253   3.176870   3.257062   4.347382   3.336119
    23  O    4.840441   4.644373   4.660693   5.740239   4.629934
    24  O    3.937736   2.862805   3.359295   4.310344   3.865387
    25  O    3.361173   2.806685   3.050973   4.143086   2.767811
    26  P    3.380142   5.301617   6.418312   7.257020   6.874888
    27  O    3.081290   4.981678   6.293331   6.985973   6.814372
    28  O    2.600309   5.325617   6.359498   7.319984   6.559154
    29  H    3.325476   5.647102   6.489422   7.514883   6.631121
    30  O    4.275734   5.003769   5.867554   6.706411   6.434207
    31  H    3.928777   4.039583   4.817888   5.686443   5.378746
    32  O    4.723675   6.881640   7.971893   8.802682   8.442627
    33  H    5.355475   7.234204   8.188659   9.056357   8.657912
    34  O    4.787495   6.419300   6.914140   7.997505   6.949820
    35  H    4.642196   5.753527   6.105636   7.200066   6.094191
    36  H    5.450615   6.762453   7.214214   8.265999   7.360394
                   16         17         18         19         20
    16  C    0.000000
    17  H    1.109840   0.000000
    18  H    1.114562   1.768398   0.000000
    19  C    1.524619   2.160170   2.172478   0.000000
    20  H    2.172012   2.471266   2.510543   1.104887   0.000000
    21  H    2.185367   2.529385   3.102359   1.102687   1.760297
    22  S    2.764891   3.742046   2.973725   1.814346   2.407151
    23  O    3.956897   4.778283   4.123778   2.665221   2.751538
    24  O    2.869346   3.915102   2.516371   2.600852   3.032104
    25  O    3.258023   4.234102   3.727425   2.587944   3.502688
    26  P    6.323818   7.382598   5.798419   6.079373   6.422964
    27  O    6.487376   7.542297   5.941464   6.544136   7.046675
    28  O    6.366390   7.458825   6.104389   5.847279   6.285898
    29  H    6.296608   7.350688   6.084052   5.557403   5.865932
    30  O    5.426882   6.404386   4.781578   5.152749   5.288981
    31  H    4.369473   5.369563   3.785950   4.117250   4.339543
    32  O    7.762981   8.788302   7.166920   7.442107   7.643845
    33  H    7.791609   8.772924   7.181828   7.347838   7.407304
    34  O    6.408042   7.339054   6.306157   5.326116   5.371278
    35  H    5.558428   6.460178   5.555519   4.397841   4.462340
    36  H    6.538835   7.419328   6.315795   5.490013   5.365656
                   21         22         23         24         25
    21  H    0.000000
    22  S    2.407741   0.000000
    23  O    3.054441   1.471938   0.000000
    24  O    3.519908   1.495252   2.484322   0.000000
    25  O    2.701803   1.482629   2.502834   2.465336   0.000000
    26  P    6.870929   4.496053   4.724955   3.539263   4.853343
    27  O    7.325021   5.092606   5.665951   4.017936   5.182562
    28  O    6.432746   4.071303   4.106128   3.638201   4.137122
    29  H    6.108982   3.773108   3.456447   3.568593   4.046660
    30  O    6.069523   3.792764   3.950439   2.665919   4.602736
    31  H    5.042279   2.812601   3.223251   1.591320   3.674389
    32  O    8.252791   5.860706   5.814896   4.938646   6.325096
    33  H    8.173773   5.819868   5.562769   4.964213   6.478660
    34  O    5.767399   3.738983   2.746498   3.982381   4.328275
    35  H    4.792463   2.874004   1.777004   3.368692   3.536275
    36  H    6.041852   4.046188   3.003350   4.096819   4.890844
                   26         27         28         29         30
    26  P    0.000000
    27  O    1.462898   0.000000
    28  O    1.588210   2.492319   0.000000
    29  H    2.196836   3.386911   1.042064   0.000000
    30  O    1.578353   2.627243   2.562699   2.611235   0.000000
    31  H    2.194488   2.958302   2.770367   2.779912   1.077475
    32  O    1.598590   2.512192   2.558179   2.910155   2.469454
    33  H    2.160137   3.347102   2.944649   2.936493   2.409889
    34  O    3.739796   5.058343   2.842047   1.803480   3.490882
    35  H    4.016909   5.220481   3.142080   2.209690   3.566136
    36  H    3.830838   5.241282   3.304239   2.312349   3.292989
                   31         32         33         34         35
    31  H    0.000000
    32  O    3.434709   0.000000
    33  H    3.435766   1.024448   0.000000
    34  O    3.516634   4.189175   3.789595   0.000000
    35  H    3.292276   4.762969   4.427620   0.990097   0.000000
    36  H    3.454432   4.079136   3.475778   0.954732   1.518865
                   36
    36  H    0.000000
 Symmetry turned off by external request.
 Stoichiometry    C7H17N2O8PS
 Framework group  C1[X(C7H17N2O8PS)]
 Deg. of freedom   102
 Full point group                 C1      NOp   1
 Rotational constants (GHZ):           0.4450293           0.2611130           0.2005356
 Leave Link  202 at Thu May 12 12:47:25 2022, MaxMem=  5242880000 cpu:               0.1 elap:               0.0
 (Enter /data0/hywu0/study/g16/l122.exe)
 Counterpoise: doing full-system calculation.
 Leave Link  122 at Thu May 12 12:47:25 2022, MaxMem=  5242880000 cpu:               0.0 elap:               0.0
 (Enter /data0/hywu0/study/g16/l301.exe)
 Standard basis: 6-311+G(2d,p) (5D, 7F)
 Ernie: Thresh=  0.10000D-02 Tol=  0.10000D-05 Strict=F.
   631 basis functions,   962 primitive gaussians,   669 cartesian basis functions
    84 alpha electrons       84 beta electrons
       nuclear repulsion energy      2128.2072105174 Hartrees.
 IExCor= 4336 DFT=T Ex+Corr=M062X ExCW=0 ScaHFX=  0.540000
 ScaDFX=  1.000000  1.000000  1.000000  1.000000 ScalE2=  1.000000  1.000000
 IRadAn=      5 IRanWt=     -1 IRanGd=            0 ICorTp=0 IEmpDi=131
 NAtoms=   36 NActive=   36 NUniq=   36 SFac= 1.00D+00 NAtFMM=   60 NAOKFM=F Big=F
 Integral buffers will be    131072 words long.
 Raffenetti 2 integral format.
 Two-electron integral symmetry is turned off.
 R6Disp:  Grimme-D3 Dispersion energy=       -0.0027967927 Hartrees.
 Nuclear repulsion after empirical dispersion term =     2128.2044137247 Hartrees.
 Leave Link  301 at Thu May 12 12:47:26 2022, MaxMem=  5242880000 cpu:               0.8 elap:               0.1
 (Enter /data0/hywu0/study/g16/l302.exe)
 NPDir=0 NMtPBC=     1 NCelOv=     1 NCel=       1 NClECP=     1 NCelD=      1
         NCelK=      1 NCelE2=     1 NClLst=     1 CellRange=     0.0.
 One-electron integrals computed using PRISM.
 NBasis=   631 RedAO= T EigKep=  8.11D-06  NBF=   631
 NBsUse=   631 1.00D-06 EigRej= -1.00D+00 NBFU=   631
 Precomputing XC quadrature grid using
 IXCGrd= 4 IRadAn=           5 IRanWt=          -1 IRanGd=           0 AccXCQ= 0.00D+00.
 Generated NRdTot=       0 NPtTot=           0 NUsed=           0 NTot=          32
 NSgBfM=   668   668   668   668   668 MxSgAt=    36 MxSgA2=    36.
 Leave Link  302 at Thu May 12 12:47:26 2022, MaxMem=  5242880000 cpu:              11.4 elap:               0.7
 (Enter /data0/hywu0/study/g16/l303.exe)
 DipDrv:  MaxL=1.
 Leave Link  303 at Thu May 12 12:47:26 2022, MaxMem=  5242880000 cpu:               1.2 elap:               0.1
 (Enter /data0/hywu0/study/g16/l401.exe)
 ExpMin= 3.48D-02 ExpMax= 9.34D+04 ExpMxC= 3.17D+03 IAcc=3 IRadAn=         5 AccDes= 0.00D+00
 Harris functional with IExCor= 1009 and IRadAn=       5 diagonalized for initial guess.
 HarFok:  IExCor= 1009 AccDes= 0.00D+00 IRadAn=         5 IDoV= 1 UseB2=F ITyADJ=14
 ICtDFT=  3500011 ScaDFX=  1.000000  1.000000  1.000000  1.000000
 FoFCou: FMM=F IPFlag=           0 FMFlag=      100000 FMFlg1=           0
         NFxFlg=           0 DoJE=T BraDBF=F KetDBF=T FulRan=T
         wScrn=  0.000000 ICntrl=       500 IOpCl=  0 I1Cent=   200000004 NGrid=           0
         NMat0=    1 NMatS0=      1 NMatT0=    0 NMatD0=    1 NMtDS0=    0 NMtDT0=    0
 Symmetry not used in FoFCou.
 Harris En= -1727.17940168527    
 JPrj=0 DoOrth=F DoCkMO=F.
 Leave Link  401 at Thu May 12 12:47:30 2022, MaxMem=  5242880000 cpu:              51.8 elap:               3.3
 (Enter /data0/hywu0/study/g16/l502.exe)
 Two-electron integral symmetry not used.
 Closed shell SCF:
 Using DIIS extrapolation, IDIIS=  1040.
 NGot=  5242880000 LenX=  5241969541 LenY=  5241521311
 Requested convergence on RMS density matrix=1.00D-08 within 128 cycles.
 Requested convergence on MAX density matrix=1.00D-06.
 Requested convergence on             energy=1.00D-06.
 No special actions if energy rises.
 Fock matrices will be formed incrementally for  20 cycles.

 Cycle   1  Pass 1  IDiag  1:
 FoFJK:  IHMeth= 1 ICntrl=       0 DoSepK=F KAlg= 0 I1Cent=           0 FoldK=F
 IRaf= 830000000 NMat=       1 IRICut=       1 DoRegI=T DoRafI=F ISym2E= 0 IDoP0=0 IntGTp=1.
 FoFCou: FMM=F IPFlag=           0 FMFlag=      100000 FMFlg1=           0
         NFxFlg=           0 DoJE=F BraDBF=F KetDBF=F FulRan=T
         wScrn=  0.000000 ICntrl=         0 IOpCl=  0 I1Cent=           0 NGrid=           0
         NMat0=    1 NMatS0=      1 NMatT0=    0 NMatD0=    1 NMtDS0=    0 NMtDT0=    0
 Symmetry not used in FoFCou.
 E= -1727.11745573544    
 DIIS: error= 2.08D-02 at cycle   1 NSaved=   1.
 NSaved= 1 IEnMin= 1 EnMin= -1727.11745573544     IErMin= 1 ErrMin= 2.08D-02
 ErrMax= 2.08D-02  0.00D+00 EMaxC= 1.00D-01 BMatC= 1.29D+00 BMatP= 1.29D+00
 IDIUse=3 WtCom= 7.92D-01 WtEn= 2.08D-01
 Coeff-Com:  0.100D+01
 Coeff-En:   0.100D+01
 Coeff:      0.100D+01
 Gap=     0.272 Goal=   None    Shift=    0.000
 GapD=    0.272 DampG=1.000 DampE=0.500 DampFc=0.5000 IDamp=-1.
 Damping current iteration by 5.00D-01
 RMSDP=4.74D-03 MaxDP=3.58D-01              OVMax= 2.31D-01

 Cycle   2  Pass 1  IDiag  1:
 RMSU=  2.37D-03    CP:  1.01D+00
 E= -1727.44613192031     Delta-E=       -0.328676184870 Rises=F Damp=T
 DIIS: error= 5.81D-03 at cycle   2 NSaved=   2.
 NSaved= 2 IEnMin= 2 EnMin= -1727.44613192031     IErMin= 2 ErrMin= 5.81D-03
 ErrMax= 5.81D-03  0.00D+00 EMaxC= 1.00D-01 BMatC= 7.53D-02 BMatP= 1.29D+00
 IDIUse=3 WtCom= 9.42D-01 WtEn= 5.81D-02
 Coeff-Com:  0.323D-01 0.968D+00
 Coeff-En:   0.127D+00 0.873D+00
 Coeff:      0.378D-01 0.962D+00
 Gap=     0.344 Goal=   None    Shift=    0.000
 RMSDP=1.92D-03 MaxDP=3.24D-01 DE=-3.29D-01 OVMax= 1.26D-01

 Cycle   3  Pass 1  IDiag  1:
 RMSU=  1.53D-03    CP:  9.12D-01  7.98D-01
 E= -1727.84919240947     Delta-E=       -0.403060489158 Rises=F Damp=F
 DIIS: error= 4.06D-03 at cycle   3 NSaved=   3.
 NSaved= 3 IEnMin= 3 EnMin= -1727.84919240947     IErMin= 3 ErrMin= 4.06D-03
 ErrMax= 4.06D-03  0.00D+00 EMaxC= 1.00D-01 BMatC= 2.60D-02 BMatP= 7.53D-02
 IDIUse=3 WtCom= 9.59D-01 WtEn= 4.06D-02
 Coeff-Com: -0.484D-01 0.329D+00 0.719D+00
 Coeff-En:   0.000D+00 0.000D+00 0.100D+01
 Coeff:     -0.464D-01 0.316D+00 0.731D+00
 Gap=     0.293 Goal=   None    Shift=    0.000
 RMSDP=4.39D-04 MaxDP=2.45D-02 DE=-4.03D-01 OVMax= 3.80D-02

 Cycle   4  Pass 1  IDiag  1:
 RMSU=  3.83D-04    CP:  9.15D-01  8.80D-01  9.46D-01
 E= -1727.86329165560     Delta-E=       -0.014099246136 Rises=F Damp=F
 DIIS: error= 1.66D-03 at cycle   4 NSaved=   4.
 NSaved= 4 IEnMin= 4 EnMin= -1727.86329165560     IErMin= 4 ErrMin= 1.66D-03
 ErrMax= 1.66D-03  0.00D+00 EMaxC= 1.00D-01 BMatC= 7.02D-03 BMatP= 2.60D-02
 IDIUse=3 WtCom= 9.83D-01 WtEn= 1.66D-02
 Coeff-Com: -0.276D-01 0.778D-01 0.389D+00 0.561D+00
 Coeff-En:   0.000D+00 0.000D+00 0.190D+00 0.810D+00
 Coeff:     -0.272D-01 0.765D-01 0.386D+00 0.565D+00
 Gap=     0.291 Goal=   None    Shift=    0.000
 RMSDP=1.97D-04 MaxDP=2.10D-02 DE=-1.41D-02 OVMax= 1.38D-02

 Cycle   5  Pass 1  IDiag  1:
 RMSU=  1.15D-04    CP:  9.10D-01  8.68D-01  9.87D-01  6.52D-01
 E= -1727.86833851655     Delta-E=       -0.005046860946 Rises=F Damp=F
 DIIS: error= 2.59D-04 at cycle   5 NSaved=   5.
 NSaved= 5 IEnMin= 5 EnMin= -1727.86833851655     IErMin= 5 ErrMin= 2.59D-04
 ErrMax= 2.59D-04  0.00D+00 EMaxC= 1.00D-01 BMatC= 2.04D-04 BMatP= 7.02D-03
 IDIUse=3 WtCom= 9.97D-01 WtEn= 2.59D-03
 Coeff-Com: -0.812D-02 0.156D-01 0.120D+00 0.232D+00 0.641D+00
 Coeff-En:   0.000D+00 0.000D+00 0.000D+00 0.000D+00 0.100D+01
 Coeff:     -0.810D-02 0.155D-01 0.119D+00 0.232D+00 0.641D+00
 Gap=     0.290 Goal=   None    Shift=    0.000
 RMSDP=4.21D-05 MaxDP=4.06D-03 DE=-5.05D-03 OVMax= 3.28D-03

 Cycle   6  Pass 1  IDiag  1:
 RMSU=  3.18D-05    CP:  9.10D-01  8.67D-01  9.93D-01  6.91D-01  8.32D-01
 E= -1727.86847915900     Delta-E=       -0.000140642449 Rises=F Damp=F
 DIIS: error= 1.23D-04 at cycle   6 NSaved=   6.
 NSaved= 6 IEnMin= 6 EnMin= -1727.86847915900     IErMin= 6 ErrMin= 1.23D-04
 ErrMax= 1.23D-04  0.00D+00 EMaxC= 1.00D-01 BMatC= 2.54D-05 BMatP= 2.04D-04
 IDIUse=3 WtCom= 9.99D-01 WtEn= 1.23D-03
 Coeff-Com: -0.180D-02 0.173D-02 0.272D-01 0.690D-01 0.317D+00 0.586D+00
 Coeff-En:   0.000D+00 0.000D+00 0.000D+00 0.000D+00 0.665D-02 0.993D+00
 Coeff:     -0.180D-02 0.173D-02 0.272D-01 0.689D-01 0.317D+00 0.587D+00
 Gap=     0.290 Goal=   None    Shift=    0.000
 RMSDP=1.35D-05 MaxDP=8.43D-04 DE=-1.41D-04 OVMax= 1.24D-03

 Cycle   7  Pass 1  IDiag  1:
 RMSU=  1.22D-05    CP:  9.10D-01  8.66D-01  9.94D-01  6.98D-01  8.50D-01
                    CP:  8.63D-01
 E= -1727.86849961603     Delta-E=       -0.000020457030 Rises=F Damp=F
 DIIS: error= 3.10D-05 at cycle   7 NSaved=   7.
 NSaved= 7 IEnMin= 7 EnMin= -1727.86849961603     IErMin= 7 ErrMin= 3.10D-05
 ErrMax= 3.10D-05  0.00D+00 EMaxC= 1.00D-01 BMatC= 2.30D-06 BMatP= 2.54D-05
 IDIUse=1 WtCom= 1.00D+00 WtEn= 0.00D+00
 Coeff-Com:  0.154D-03-0.105D-02-0.276D-02 0.310D-02 0.713D-01 0.257D+00
 Coeff-Com:  0.672D+00
 Coeff:      0.154D-03-0.105D-02-0.276D-02 0.310D-02 0.713D-01 0.257D+00
 Coeff:      0.672D+00
 Gap=     0.290 Goal=   None    Shift=    0.000
 RMSDP=4.37D-06 MaxDP=1.79D-04 DE=-2.05D-05 OVMax= 4.56D-04

 Cycle   8  Pass 1  IDiag  1:
 RMSU=  3.69D-06    CP:  9.10D-01  8.66D-01  9.94D-01  7.00D-01  8.60D-01
                    CP:  9.14D-01  9.72D-01
 E= -1727.86850151803     Delta-E=       -0.000001902003 Rises=F Damp=F
 DIIS: error= 1.17D-05 at cycle   8 NSaved=   8.
 NSaved= 8 IEnMin= 8 EnMin= -1727.86850151803     IErMin= 8 ErrMin= 1.17D-05
 ErrMax= 1.17D-05  0.00D+00 EMaxC= 1.00D-01 BMatC= 3.22D-07 BMatP= 2.30D-06
 IDIUse=1 WtCom= 1.00D+00 WtEn= 0.00D+00
 Coeff-Com:  0.317D-03-0.672D-03-0.548D-02-0.896D-02-0.148D-01 0.165D-01
 Coeff-Com:  0.290D+00 0.723D+00
 Coeff:      0.317D-03-0.672D-03-0.548D-02-0.896D-02-0.148D-01 0.165D-01
 Coeff:      0.290D+00 0.723D+00
 Gap=     0.290 Goal=   None    Shift=    0.000
 RMSDP=2.82D-06 MaxDP=4.60D-04 DE=-1.90D-06 OVMax= 1.37D-04

 Cycle   9  Pass 1  IDiag  1:
 RMSU=  1.79D-06    CP:  9.10D-01  8.66D-01  9.95D-01  7.00D-01  8.74D-01
                    CP:  9.30D-01  9.66D-01  8.12D-01
 E= -1727.86850180358     Delta-E=       -0.000000285546 Rises=F Damp=F
 DIIS: error= 3.44D-06 at cycle   9 NSaved=   9.
 NSaved= 9 IEnMin= 9 EnMin= -1727.86850180358     IErMin= 9 ErrMin= 3.44D-06
 ErrMax= 3.44D-06  0.00D+00 EMaxC= 1.00D-01 BMatC= 3.89D-08 BMatP= 3.22D-07
 IDIUse=1 WtCom= 1.00D+00 WtEn= 0.00D+00
 Coeff-Com:  0.121D-03-0.196D-03-0.231D-02-0.438D-02-0.127D-01-0.154D-01
 Coeff-Com:  0.780D-01 0.332D+00 0.625D+00
 Coeff:      0.121D-03-0.196D-03-0.231D-02-0.438D-02-0.127D-01-0.154D-01
 Coeff:      0.780D-01 0.332D+00 0.625D+00
 Gap=     0.290 Goal=   None    Shift=    0.000
 RMSDP=6.99D-07 MaxDP=3.21D-05 DE=-2.86D-07 OVMax= 4.07D-05

 Cycle  10  Pass 1  IDiag  1:
 RMSU=  4.27D-07    CP:  9.10D-01  8.66D-01  9.95D-01  7.01D-01  8.73D-01
                    CP:  9.35D-01  9.94D-01  8.76D-01  9.14D-01
 E= -1727.86850183756     Delta-E=       -0.000000033985 Rises=F Damp=F
 DIIS: error= 1.35D-06 at cycle  10 NSaved=  10.
 NSaved=10 IEnMin=10 EnMin= -1727.86850183756     IErMin=10 ErrMin= 1.35D-06
 ErrMax= 1.35D-06  0.00D+00 EMaxC= 1.00D-01 BMatC= 4.12D-09 BMatP= 3.89D-08
 IDIUse=1 WtCom= 1.00D+00 WtEn= 0.00D+00
 Coeff-Com:  0.635D-05 0.500D-05-0.230D-03-0.587D-03-0.315D-02-0.877D-02
 Coeff-Com: -0.566D-02 0.351D-01 0.251D+00 0.732D+00
 Coeff:      0.635D-05 0.500D-05-0.230D-03-0.587D-03-0.315D-02-0.877D-02
 Coeff:     -0.566D-02 0.351D-01 0.251D+00 0.732D+00
 Gap=     0.290 Goal=   None    Shift=    0.000
 RMSDP=2.30D-07 MaxDP=1.32D-05 DE=-3.40D-08 OVMax= 2.40D-05

 Cycle  11  Pass 1  IDiag  1:
 RMSU=  1.97D-07    CP:  9.10D-01  8.66D-01  9.95D-01  7.01D-01  8.73D-01
                    CP:  9.35D-01  9.97D-01  8.85D-01  9.64D-01  1.00D+00
 E= -1727.86850184203     Delta-E=       -0.000000004463 Rises=F Damp=F
 DIIS: error= 5.64D-07 at cycle  11 NSaved=  11.
 NSaved=11 IEnMin=11 EnMin= -1727.86850184203     IErMin=11 ErrMin= 5.64D-07
 ErrMax= 5.64D-07  0.00D+00 EMaxC= 1.00D-01 BMatC= 5.37D-10 BMatP= 4.12D-09
 IDIUse=1 WtCom= 1.00D+00 WtEn= 0.00D+00
 Coeff-Com: -0.151D-04 0.309D-04 0.255D-03 0.416D-03 0.589D-03-0.128D-02
 Coeff-Com: -0.135D-01-0.385D-01-0.722D-03 0.283D+00 0.769D+00
 Coeff:     -0.151D-04 0.309D-04 0.255D-03 0.416D-03 0.589D-03-0.128D-02
 Coeff:     -0.135D-01-0.385D-01-0.722D-03 0.283D+00 0.769D+00
 Gap=     0.290 Goal=   None    Shift=    0.000
 RMSDP=1.19D-07 MaxDP=1.59D-05 DE=-4.46D-09 OVMax= 1.32D-05

 Cycle  12  Pass 1  IDiag  1:
 RMSU=  5.74D-08    CP:  9.10D-01  8.66D-01  9.95D-01  7.01D-01  8.73D-01
                    CP:  9.36D-01  9.94D-01  8.85D-01  1.01D+00  1.10D+00
                    CP:  1.01D+00
 E= -1727.86850184261     Delta-E=       -0.000000000585 Rises=F Damp=F
 DIIS: error= 1.87D-07 at cycle  12 NSaved=  12.
 NSaved=12 IEnMin=12 EnMin= -1727.86850184261     IErMin=12 ErrMin= 1.87D-07
 ErrMax= 1.87D-07  0.00D+00 EMaxC= 1.00D-01 BMatC= 5.71D-11 BMatP= 5.37D-10
 IDIUse=1 WtCom= 1.00D+00 WtEn= 0.00D+00
 Coeff-Com: -0.506D-05 0.934D-05 0.108D-03 0.190D-03 0.486D-03 0.319D-03
 Coeff-Com: -0.387D-02-0.165D-01-0.244D-01 0.325D-01 0.282D+00 0.729D+00
 Coeff:     -0.506D-05 0.934D-05 0.108D-03 0.190D-03 0.486D-03 0.319D-03
 Coeff:     -0.387D-02-0.165D-01-0.244D-01 0.325D-01 0.282D+00 0.729D+00
 Gap=     0.290 Goal=   None    Shift=    0.000
 RMSDP=3.12D-08 MaxDP=3.90D-06 DE=-5.85D-10 OVMax= 3.86D-06

 Cycle  13  Pass 1  IDiag  1:
 RMSU=  2.22D-08    CP:  9.10D-01  8.66D-01  9.95D-01  7.01D-01  8.73D-01
                    CP:  9.36D-01  9.94D-01  8.84D-01  1.01D+00  1.11D+00
                    CP:  1.05D+00  1.03D+00
 E= -1727.86850184264     Delta-E=       -0.000000000025 Rises=F Damp=F
 DIIS: error= 7.54D-08 at cycle  13 NSaved=  13.
 NSaved=13 IEnMin=13 EnMin= -1727.86850184264     IErMin=13 ErrMin= 7.54D-08
 ErrMax= 7.54D-08  0.00D+00 EMaxC= 1.00D-01 BMatC= 1.35D-11 BMatP= 5.71D-11
 IDIUse=1 WtCom= 1.00D+00 WtEn= 0.00D+00
 Coeff-Com:  0.284D-07-0.497D-06 0.134D-04 0.264D-04 0.146D-03 0.311D-03
 Coeff-Com:  0.221D-03-0.201D-02-0.113D-01-0.281D-01 0.160D-01 0.361D+00
 Coeff-Com:  0.664D+00
 Coeff:      0.284D-07-0.497D-06 0.134D-04 0.264D-04 0.146D-03 0.311D-03
 Coeff:      0.221D-03-0.201D-02-0.113D-01-0.281D-01 0.160D-01 0.361D+00
 Coeff:      0.664D+00
 Gap=     0.290 Goal=   None    Shift=    0.000
 RMSDP=1.37D-08 MaxDP=1.44D-06 DE=-2.50D-11 OVMax= 1.83D-06

 Cycle  14  Pass 1  IDiag  1:
 RMSU=  8.53D-09    CP:  9.10D-01  8.66D-01  9.95D-01  7.01D-01  8.73D-01
                    CP:  9.36D-01  9.94D-01  8.84D-01  1.01D+00  1.12D+00
                    CP:  1.09D+00  1.14D+00  8.70D-01
 E= -1727.86850184270     Delta-E=       -0.000000000062 Rises=F Damp=F
 DIIS: error= 2.72D-08 at cycle  14 NSaved=  14.
 NSaved=14 IEnMin=14 EnMin= -1727.86850184270     IErMin=14 ErrMin= 2.72D-08
 ErrMax= 2.72D-08  0.00D+00 EMaxC= 1.00D-01 BMatC= 1.66D-12 BMatP= 1.35D-11
 IDIUse=1 WtCom= 1.00D+00 WtEn= 0.00D+00
 Coeff-Com:  0.725D-06-0.153D-05-0.838D-05-0.144D-04-0.150D-05 0.793D-04
 Coeff-Com:  0.657D-03 0.145D-02-0.184D-02-0.189D-01-0.343D-01 0.705D-01
 Coeff-Com:  0.311D+00 0.671D+00
 Coeff:      0.725D-06-0.153D-05-0.838D-05-0.144D-04-0.150D-05 0.793D-04
 Coeff:      0.657D-03 0.145D-02-0.184D-02-0.189D-01-0.343D-01 0.705D-01
 Coeff:      0.311D+00 0.671D+00
 Gap=     0.290 Goal=   None    Shift=    0.000
 RMSDP=4.71D-09 MaxDP=4.39D-07 DE=-6.23D-11 OVMax= 7.14D-07

 SCF Done:  E(RM062X) =  -1727.86850184     A.U. after   14 cycles
            NFock= 14  Conv=0.47D-08     -V/T= 2.0031
 KE= 1.722589878916D+03 PE=-8.334808832929D+03 EE= 2.756146038445D+03
 Leave Link  502 at Thu May 12 12:50:58 2022, MaxMem=  5242880000 cpu:            3323.2 elap:             208.3
 (Enter /data0/hywu0/study/g16/l601.exe)
 Copying SCF densities to generalized density rwf, IOpCl= 0 IROHF=0.

 **********************************************************************

            Population analysis using the SCF density.

 **********************************************************************

 Alpha  occ. eigenvalues --  -90.09781 -78.12905 -19.64062 -19.62836 -19.62397
 Alpha  occ. eigenvalues --  -19.61644 -19.61015 -19.60615 -19.59887 -19.55587
 Alpha  occ. eigenvalues --  -14.86041 -14.86001 -10.67254 -10.63160 -10.61549
 Alpha  occ. eigenvalues --  -10.61170 -10.59480 -10.58438 -10.57977  -8.43228
 Alpha  occ. eigenvalues --   -6.93634  -6.35516  -6.35471  -6.35445  -5.05557
 Alpha  occ. eigenvalues --   -5.05519  -5.05351  -1.24229  -1.19653  -1.18810
 Alpha  occ. eigenvalues --   -1.12851  -1.12200  -1.11346  -1.10543  -1.10030
 Alpha  occ. eigenvalues --   -1.07768  -1.06158  -0.93671  -0.90037  -0.86245
 Alpha  occ. eigenvalues --   -0.81740  -0.76203  -0.72559  -0.70866  -0.68484
 Alpha  occ. eigenvalues --   -0.67062  -0.65188  -0.61782  -0.60765  -0.60261
 Alpha  occ. eigenvalues --   -0.59642  -0.58412  -0.57299  -0.57197  -0.56090
 Alpha  occ. eigenvalues --   -0.55651  -0.54856  -0.54211  -0.52611  -0.51693
 Alpha  occ. eigenvalues --   -0.51383  -0.50679  -0.49910  -0.48511  -0.47644
 Alpha  occ. eigenvalues --   -0.47328  -0.46310  -0.45588  -0.44370  -0.44153
 Alpha  occ. eigenvalues --   -0.44051  -0.42083  -0.41780  -0.41220  -0.39805
 Alpha  occ. eigenvalues --   -0.39077  -0.38963  -0.38002  -0.36857  -0.35983
 Alpha  occ. eigenvalues --   -0.35591  -0.35169  -0.35060  -0.31112
 Alpha virt. eigenvalues --   -0.02083  -0.00310   0.00705   0.00843   0.01313
 Alpha virt. eigenvalues --    0.01507   0.02475   0.02742   0.03325   0.03642
 Alpha virt. eigenvalues --    0.04872   0.05471   0.05593   0.05913   0.06107
 Alpha virt. eigenvalues --    0.06821   0.07543   0.08154   0.08337   0.08773
 Alpha virt. eigenvalues --    0.09252   0.09868   0.10147   0.10377   0.10810
 Alpha virt. eigenvalues --    0.11846   0.12411   0.12716   0.13285   0.13424
 Alpha virt. eigenvalues --    0.13705   0.13883   0.14462   0.14808   0.15382
 Alpha virt. eigenvalues --    0.15634   0.15889   0.16543   0.16722   0.16933
 Alpha virt. eigenvalues --    0.17225   0.17426   0.18062   0.18164   0.18532
 Alpha virt. eigenvalues --    0.18806   0.19114   0.19311   0.19573   0.20354
 Alpha virt. eigenvalues --    0.20537   0.20819   0.21285   0.21829   0.21938
 Alpha virt. eigenvalues --    0.22184   0.22716   0.23122   0.23609   0.23643
 Alpha virt. eigenvalues --    0.24087   0.25042   0.25423   0.25888   0.26274
 Alpha virt. eigenvalues --    0.26590   0.26987   0.27203   0.27375   0.28177
 Alpha virt. eigenvalues --    0.28488   0.28679   0.28879   0.29223   0.29874
 Alpha virt. eigenvalues --    0.30003   0.30185   0.30644   0.31004   0.31285
 Alpha virt. eigenvalues --    0.31615   0.32195   0.32631   0.33211   0.33431
 Alpha virt. eigenvalues --    0.33649   0.33717   0.34583   0.35081   0.35282
 Alpha virt. eigenvalues --    0.35732   0.36462   0.36828   0.37190   0.38025
 Alpha virt. eigenvalues --    0.38587   0.39093   0.39520   0.40377   0.41006
 Alpha virt. eigenvalues --    0.41231   0.41466   0.41692   0.42539   0.42871
 Alpha virt. eigenvalues --    0.43462   0.44046   0.44326   0.44983   0.45541
 Alpha virt. eigenvalues --    0.46186   0.46774   0.47589   0.47932   0.48457
 Alpha virt. eigenvalues --    0.49366   0.49703   0.50152   0.51171   0.51985
 Alpha virt. eigenvalues --    0.52381   0.54092   0.54729   0.55521   0.56244
 Alpha virt. eigenvalues --    0.56443   0.57251   0.57897   0.58891   0.59564
 Alpha virt. eigenvalues --    0.59935   0.61423   0.61756   0.62241   0.62520
 Alpha virt. eigenvalues --    0.63340   0.64305   0.64645   0.65016   0.65880
 Alpha virt. eigenvalues --    0.67021   0.67269   0.67719   0.68241   0.68831
 Alpha virt. eigenvalues --    0.69124   0.69976   0.70671   0.71551   0.71976
 Alpha virt. eigenvalues --    0.73166   0.74022   0.74042   0.74682   0.75138
 Alpha virt. eigenvalues --    0.76566   0.76977   0.77468   0.78942   0.79358
 Alpha virt. eigenvalues --    0.80758   0.81430   0.82257   0.83617   0.84454
 Alpha virt. eigenvalues --    0.84590   0.86308   0.86682   0.87382   0.87718
 Alpha virt. eigenvalues --    0.89603   0.90485   0.91292   0.91678   0.91858
 Alpha virt. eigenvalues --    0.92619   0.93601   0.94448   0.95195   0.96476
 Alpha virt. eigenvalues --    0.98407   0.99780   1.01067   1.01436   1.04298
 Alpha virt. eigenvalues --    1.05319   1.05637   1.06194   1.07001   1.08189
 Alpha virt. eigenvalues --    1.09310   1.11234   1.11811   1.12367   1.13333
 Alpha virt. eigenvalues --    1.14290   1.15094   1.15219   1.15763   1.16269
 Alpha virt. eigenvalues --    1.17620   1.18101   1.19556   1.20042   1.20515
 Alpha virt. eigenvalues --    1.21847   1.22162   1.22422   1.22683   1.23893
 Alpha virt. eigenvalues --    1.24207   1.24523   1.25402   1.25959   1.26155
 Alpha virt. eigenvalues --    1.26869   1.27345   1.28160   1.29118   1.29745
 Alpha virt. eigenvalues --    1.30430   1.31080   1.31182   1.33268   1.33439
 Alpha virt. eigenvalues --    1.34049   1.34316   1.34939   1.35486   1.36255
 Alpha virt. eigenvalues --    1.36778   1.37778   1.38413   1.38909   1.40607
 Alpha virt. eigenvalues --    1.41030   1.41395   1.42450   1.43129   1.43307
 Alpha virt. eigenvalues --    1.44388   1.44581   1.44905   1.45133   1.46188
 Alpha virt. eigenvalues --    1.46859   1.47597   1.49199   1.50004   1.51014
 Alpha virt. eigenvalues --    1.51627   1.52185   1.53660   1.54747   1.54994
 Alpha virt. eigenvalues --    1.55707   1.57291   1.58257   1.58783   1.59953
 Alpha virt. eigenvalues --    1.62086   1.63068   1.63552   1.64352   1.66196
 Alpha virt. eigenvalues --    1.67035   1.69401   1.70464   1.70878   1.71494
 Alpha virt. eigenvalues --    1.73425   1.74175   1.74873   1.75835   1.76532
 Alpha virt. eigenvalues --    1.77097   1.77476   1.78458   1.79369   1.81025
 Alpha virt. eigenvalues --    1.82202   1.83124   1.84020   1.84501   1.85658
 Alpha virt. eigenvalues --    1.86506   1.87591   1.87722   1.88924   1.89781
 Alpha virt. eigenvalues --    1.90799   1.90987   1.92196   1.93998   1.94829
 Alpha virt. eigenvalues --    1.95913   1.97007   1.97610   1.99563   2.00173
 Alpha virt. eigenvalues --    2.00967   2.01327   2.02274   2.03152   2.04754
 Alpha virt. eigenvalues --    2.05928   2.07179   2.08086   2.09137   2.10814
 Alpha virt. eigenvalues --    2.11776   2.12499   2.12639   2.12859   2.14891
 Alpha virt. eigenvalues --    2.16911   2.17678   2.18909   2.19755   2.21260
 Alpha virt. eigenvalues --    2.23002   2.23547   2.24254   2.25066   2.26104
 Alpha virt. eigenvalues --    2.27716   2.28436   2.29564   2.30097   2.31483
 Alpha virt. eigenvalues --    2.32624   2.33387   2.35317   2.35652   2.35957
 Alpha virt. eigenvalues --    2.36976   2.38576   2.39222   2.41671   2.42645
 Alpha virt. eigenvalues --    2.42972   2.43856   2.44920   2.46058   2.47699
 Alpha virt. eigenvalues --    2.49641   2.50910   2.51786   2.53944   2.54301
 Alpha virt. eigenvalues --    2.57301   2.61125   2.64377   2.66818   2.67033
 Alpha virt. eigenvalues --    2.70725   2.72278   2.73020   2.74446   2.75492
 Alpha virt. eigenvalues --    2.76238   2.77642   2.80264   2.81002   2.82031
 Alpha virt. eigenvalues --    2.84341   2.84858   2.85544   2.87030   2.88191
 Alpha virt. eigenvalues --    2.90038   2.90956   2.91871   2.93297   2.94496
 Alpha virt. eigenvalues --    2.95419   2.97577   2.99636   3.00273   3.01487
 Alpha virt. eigenvalues --    3.03688   3.04880   3.07359   3.07985   3.08909
 Alpha virt. eigenvalues --    3.10974   3.15156   3.16462   3.18422   3.21154
 Alpha virt. eigenvalues --    3.24239   3.26191   3.27565   3.27898   3.31022
 Alpha virt. eigenvalues --    3.33419   3.34154   3.36629   3.38435   3.39978
 Alpha virt. eigenvalues --    3.41711   3.46621   3.47812   3.48689   3.48742
 Alpha virt. eigenvalues --    3.49500   3.51080   3.52318   3.54110   3.55258
 Alpha virt. eigenvalues --    3.57041   3.58419   3.58994   3.62240   3.62784
 Alpha virt. eigenvalues --    3.63803   3.63974   3.65836   3.67835   3.69742
 Alpha virt. eigenvalues --    3.70511   3.72963   3.73016   3.81655   3.84670
 Alpha virt. eigenvalues --    3.85801   3.89067   3.90465   3.93060   3.97303
 Alpha virt. eigenvalues --    4.03541   4.05945   4.07356   4.14578   4.16102
 Alpha virt. eigenvalues --    4.17918   4.19951   4.20777   4.23483   4.36793
 Alpha virt. eigenvalues --    4.47659   4.54294   4.98165   5.02348   5.03695
 Alpha virt. eigenvalues --    5.06083   5.09617   5.11036   5.12683   5.13133
 Alpha virt. eigenvalues --    5.15240   5.16537   5.18313   5.19131   5.20362
 Alpha virt. eigenvalues --    5.21887   5.22848   5.23670   5.25462   5.28675
 Alpha virt. eigenvalues --    5.31126   5.32133   5.32324   5.33814   5.36697
 Alpha virt. eigenvalues --    5.39137   5.42151   5.45638   5.46855   5.48398
 Alpha virt. eigenvalues --    5.53687   5.56114   5.57411   5.58424   5.59000
 Alpha virt. eigenvalues --    5.63925   5.66594   5.69921   5.84549   5.94308
 Alpha virt. eigenvalues --    6.77643   6.78870   6.78997   6.79643   6.80099
 Alpha virt. eigenvalues --    6.81279   6.82795   6.83709   6.84464   6.84532
 Alpha virt. eigenvalues --    6.85345   6.86039   6.89155   6.90988   6.91993
 Alpha virt. eigenvalues --    6.93441   6.93994   6.94743   6.95837   6.98574
 Alpha virt. eigenvalues --    6.99690   7.00614   7.02026   7.04177   7.05347
 Alpha virt. eigenvalues --    7.06779   7.08671   7.13105   7.16301   7.17037
 Alpha virt. eigenvalues --    7.21721   7.26174   7.28069   7.30917   7.35791
 Alpha virt. eigenvalues --    7.38789   7.39743   7.42181   7.42704   7.46401
 Alpha virt. eigenvalues --    7.72272   8.61685  14.29721  14.33178  14.43505
 Alpha virt. eigenvalues --   17.75613  17.77866  17.85561  23.91370  23.96190
 Alpha virt. eigenvalues --   23.99747  24.02500  24.05899  24.10895  24.18022
 Alpha virt. eigenvalues --   35.62394  35.70050  50.04505  50.06572  50.08632
 Alpha virt. eigenvalues --   50.09643  50.11581  50.13595  50.15596  50.19059
 Alpha virt. eigenvalues --  163.98020 189.93114
          Condensed to atoms (all electrons):
               1          2          3          4          5          6
     1  C    7.722869  -1.410662  -0.591837   0.148665   0.364828  -0.002147
     2  C   -1.410662   7.160223  -0.057188   0.082089   0.001748   0.366527
     3  C   -0.591837  -0.057188   6.896140   0.202511   0.010968   0.015393
     4  N    0.148665   0.082089   0.202511   6.193597  -0.029941   0.006536
     5  H    0.364828   0.001748   0.010968  -0.029941   0.429885  -0.001626
     6  H   -0.002147   0.366527   0.015393   0.006536  -0.001626   0.480943
     7  H    0.017608   0.002116   0.410029  -0.036287  -0.000020  -0.000095
     8  C   -0.191396   0.060673  -0.236734   0.181323   0.002441  -0.001208
     9  H   -0.003484   0.013199   0.023783  -0.063438   0.002043  -0.000029
    10  H   -0.002675   0.010390  -0.011147  -0.049985   0.000337  -0.000001
    11  H   -0.017792   0.000117  -0.010981  -0.012515  -0.000004   0.000010
    12  N    0.084516   0.141869   0.096543  -0.000220   0.007598  -0.032928
    13  C   -0.102592   0.001523  -0.258572  -0.004969   0.001366   0.005367
    14  H    0.004697  -0.008820  -0.001157  -0.003688  -0.000011   0.000276
    15  H   -0.002147  -0.004581   0.006337   0.003989   0.000007  -0.000162
    16  C    0.187077  -0.356644   0.144593  -0.007303  -0.001306   0.006604
    17  H    0.002655   0.004254  -0.005663  -0.000363  -0.000000  -0.000271
    18  H   -0.008199   0.007329  -0.000069   0.000354   0.000024  -0.000127
    19  C   -0.165797   0.304969  -0.002696   0.027841   0.000882  -0.004647
    20  H   -0.001120   0.002567  -0.000292   0.000013   0.000000   0.000003
    21  H    0.001609  -0.005058   0.002702   0.000031  -0.000000   0.000022
    22  S    0.242830  -0.214364  -0.262561  -0.007869  -0.001035   0.000171
    23  O   -0.015642   0.021191   0.000889  -0.003810   0.000034  -0.000102
    24  O   -0.024406  -0.031566   0.012747   0.015809  -0.000115  -0.001190
    25  O    0.007214   0.014496  -0.093147   0.027507   0.000066  -0.000227
    26  P   -0.075465   0.021532   0.025429   0.020790   0.001963  -0.000137
    27  O    0.034908  -0.002801   0.013469  -0.001973  -0.005485   0.000192
    28  O   -0.006487   0.003616  -0.023370   0.011288   0.000215  -0.000016
    29  H    0.006073  -0.003119   0.007043  -0.000199  -0.000094   0.000004
    30  O   -0.021787  -0.001030  -0.002560  -0.004038   0.000311   0.000287
    31  H    0.016711   0.010452  -0.002126   0.000898  -0.000394  -0.000349
    32  O   -0.009870   0.005309   0.000684  -0.000685   0.000156  -0.000006
    33  H    0.000011  -0.000492  -0.000233  -0.000112   0.000003   0.000000
    34  O   -0.002622   0.001584  -0.005877  -0.000863   0.000026  -0.000003
    35  H    0.000670  -0.000391   0.002112   0.000374  -0.000004   0.000001
    36  H    0.000287  -0.000183   0.000156   0.000047  -0.000001   0.000000
               7          8          9         10         11         12
     1  C    0.017608  -0.191396  -0.003484  -0.002675  -0.017792   0.084516
     2  C    0.002116   0.060673   0.013199   0.010390   0.000117   0.141869
     3  C    0.410029  -0.236734   0.023783  -0.011147  -0.010981   0.096543
     4  N   -0.036287   0.181323  -0.063438  -0.049985  -0.012515  -0.000220
     5  H   -0.000020   0.002441   0.002043   0.000337  -0.000004   0.007598
     6  H   -0.000095  -0.001208  -0.000029  -0.000001   0.000010  -0.032928
     7  H    0.433395   0.005502  -0.000041   0.001746   0.000196  -0.033733
     8  C    0.005502   5.480422   0.406861   0.405640   0.417849   0.009199
     9  H   -0.000041   0.406861   0.438529  -0.012877  -0.019240  -0.003728
    10  H    0.001746   0.405640  -0.012877   0.512897  -0.028746  -0.004153
    11  H    0.000196   0.417849  -0.019240  -0.028746   0.423661   0.005904
    12  N   -0.033733   0.009199  -0.003728  -0.004153   0.005904   6.408629
    13  C   -0.004828  -0.013315  -0.000016   0.001334  -0.000028   0.149901
    14  H    0.000253  -0.000050  -0.000002  -0.000011   0.000004  -0.061092
    15  H    0.002327   0.001101  -0.000000  -0.000006   0.000006  -0.051011
    16  C   -0.000193  -0.004295   0.000062  -0.000276   0.000094   0.016803
    17  H   -0.000016  -0.000008  -0.000000  -0.000000   0.000000  -0.002642
    18  H    0.000087  -0.000127  -0.000000   0.000000   0.000002  -0.001881
    19  C   -0.001390   0.013348   0.000032  -0.000005  -0.000710   0.035187
    20  H   -0.000013  -0.000055  -0.000000   0.000000   0.000000   0.001080
    21  H    0.000064  -0.000159  -0.000000  -0.000000   0.000001  -0.003094
    22  S    0.008910  -0.030904  -0.001539   0.000905   0.001021  -0.027238
    23  O   -0.000133   0.000699   0.000004   0.000017  -0.000028  -0.008935
    24  O    0.000433   0.003847   0.000263  -0.000010   0.000124  -0.030212
    25  O   -0.035196   0.016230  -0.000164  -0.000739   0.001764   0.026982
    26  P   -0.000232   0.008289   0.001120   0.001448  -0.002138   0.002464
    27  O   -0.000033  -0.036206  -0.001779   0.001903  -0.001524  -0.001493
    28  O    0.000004   0.015063  -0.001236   0.000400  -0.002746  -0.002689
    29  H   -0.000011  -0.009625   0.000085   0.000022  -0.000346  -0.000319
    30  O   -0.000019   0.013414   0.000418  -0.000056   0.000309   0.004292
    31  H    0.000014  -0.006097  -0.000155  -0.000002  -0.000095  -0.005836
    32  O    0.000003  -0.002295   0.000112   0.000031   0.000012   0.000195
    33  H    0.000000   0.000673  -0.000001  -0.000000  -0.000007  -0.000006
    34  O    0.000017   0.004145  -0.000013  -0.000001  -0.000011   0.000410
    35  H   -0.000012  -0.001601   0.000002  -0.000000  -0.000042   0.000100
    36  H    0.000000  -0.000069   0.000000   0.000000   0.000000  -0.000043
              13         14         15         16         17         18
     1  C   -0.102592   0.004697  -0.002147   0.187077   0.002655  -0.008199
     2  C    0.001523  -0.008820  -0.004581  -0.356644   0.004254   0.007329
     3  C   -0.258572  -0.001157   0.006337   0.144593  -0.005663  -0.000069
     4  N   -0.004969  -0.003688   0.003989  -0.007303  -0.000363   0.000354
     5  H    0.001366  -0.000011   0.000007  -0.001306  -0.000000   0.000024
     6  H    0.005367   0.000276  -0.000162   0.006604  -0.000271  -0.000127
     7  H   -0.004828   0.000253   0.002327  -0.000193  -0.000016   0.000087
     8  C   -0.013315  -0.000050   0.001101  -0.004295  -0.000008  -0.000127
     9  H   -0.000016  -0.000002  -0.000000   0.000062  -0.000000  -0.000000
    10  H    0.001334  -0.000011  -0.000006  -0.000276  -0.000000   0.000000
    11  H   -0.000028   0.000004   0.000006   0.000094   0.000000   0.000002
    12  N    0.149901  -0.061092  -0.051011   0.016803  -0.002642  -0.001881
    13  C    6.160493   0.452484   0.436354  -0.354912  -0.012541  -0.051879
    14  H    0.452484   0.509269  -0.021840  -0.063080  -0.005869  -0.001103
    15  H    0.436354  -0.021840   0.458945  -0.019008  -0.000331   0.003427
    16  C   -0.354912  -0.063080  -0.019008   6.471338   0.406969   0.472784
    17  H   -0.012541  -0.005869  -0.000331   0.406969   0.514560  -0.029080
    18  H   -0.051879  -0.001103   0.003427   0.472784  -0.029080   0.479203
    19  C   -0.028669   0.008688  -0.014945  -0.725571  -0.037193  -0.049898
    20  H    0.021623  -0.000116  -0.000157  -0.092256  -0.004070  -0.004126
    21  H   -0.025486  -0.000019   0.002542   0.012045  -0.005308   0.004508
    22  S    0.036115   0.002431  -0.002216   0.131109   0.001766   0.010588
    23  O    0.005628  -0.000109  -0.000546  -0.044717  -0.000205   0.000384
    24  O   -0.005007   0.001057   0.000680   0.019728   0.001358  -0.013496
    25  O   -0.022364   0.001860   0.001274  -0.006716  -0.000881   0.001874
    26  P   -0.001273  -0.000008  -0.000019  -0.003869  -0.000006   0.000039
    27  O    0.000001   0.000002   0.000003   0.001387  -0.000001   0.000039
    28  O   -0.003401   0.000000   0.000004   0.002348  -0.000001  -0.000016
    29  H    0.000542  -0.000000  -0.000001  -0.000383   0.000000  -0.000002
    30  O   -0.000689   0.000003   0.000002   0.002409  -0.000023   0.000019
    31  H    0.003539   0.000002   0.000018  -0.004872   0.000063  -0.000133
    32  O    0.000340  -0.000000  -0.000000  -0.000401   0.000000  -0.000000
    33  H   -0.000030  -0.000000   0.000000   0.000011  -0.000000  -0.000000
    34  O   -0.000345   0.000000   0.000002   0.000429  -0.000001   0.000010
    35  H    0.000113  -0.000000  -0.000002   0.001167   0.000001  -0.000016
    36  H    0.000005  -0.000000   0.000000   0.000142   0.000000   0.000000
              19         20         21         22         23         24
     1  C   -0.165797  -0.001120   0.001609   0.242830  -0.015642  -0.024406
     2  C    0.304969   0.002567  -0.005058  -0.214364   0.021191  -0.031566
     3  C   -0.002696  -0.000292   0.002702  -0.262561   0.000889   0.012747
     4  N    0.027841   0.000013   0.000031  -0.007869  -0.003810   0.015809
     5  H    0.000882   0.000000  -0.000000  -0.001035   0.000034  -0.000115
     6  H   -0.004647   0.000003   0.000022   0.000171  -0.000102  -0.001190
     7  H   -0.001390  -0.000013   0.000064   0.008910  -0.000133   0.000433
     8  C    0.013348  -0.000055  -0.000159  -0.030904   0.000699   0.003847
     9  H    0.000032  -0.000000  -0.000000  -0.001539   0.000004   0.000263
    10  H   -0.000005   0.000000  -0.000000   0.000905   0.000017  -0.000010
    11  H   -0.000710   0.000000   0.000001   0.001021  -0.000028   0.000124
    12  N    0.035187   0.001080  -0.003094  -0.027238  -0.008935  -0.030212
    13  C   -0.028669   0.021623  -0.025486   0.036115   0.005628  -0.005007
    14  H    0.008688  -0.000116  -0.000019   0.002431  -0.000109   0.001057
    15  H   -0.014945  -0.000157   0.002542  -0.002216  -0.000546   0.000680
    16  C   -0.725571  -0.092256   0.012045   0.131109  -0.044717   0.019728
    17  H   -0.037193  -0.004070  -0.005308   0.001766  -0.000205   0.001358
    18  H   -0.049898  -0.004126   0.004508   0.010588   0.000384  -0.013496
    19  C    7.028465   0.464120   0.403087  -0.441525  -0.094452  -0.181471
    20  H    0.464120   0.458616  -0.026897  -0.050332   0.016401   0.001425
    21  H    0.403087  -0.026897   0.458855  -0.041236   0.000037  -0.000747
    22  S   -0.441525  -0.050332  -0.041236  14.536922   0.473986   0.281527
    23  O   -0.094452   0.016401   0.000037   0.473986   8.269940  -0.098979
    24  O   -0.181471   0.001425  -0.000747   0.281527  -0.098979   8.678033
    25  O   -0.078828  -0.002417   0.011718   0.263645  -0.068186   0.027931
    26  P    0.012502   0.000255   0.000014  -0.041215   0.003108   0.031902
    27  O   -0.001888  -0.000002   0.000002  -0.000206  -0.000133  -0.019985
    28  O    0.000491  -0.000009  -0.000001   0.030002  -0.005603   0.001647
    29  H    0.002903  -0.000005  -0.000003   0.014069  -0.007527  -0.004219
    30  O    0.002921  -0.000028  -0.000006  -0.021331  -0.002246   0.070187
    31  H    0.000148  -0.000146   0.000084   0.033940   0.008076   0.017939
    32  O    0.000056   0.000001  -0.000000  -0.003156   0.000765   0.006996
    33  H    0.000028  -0.000000   0.000000   0.000043  -0.000077   0.000520
    34  O   -0.012224   0.000121   0.000058  -0.021926   0.023472  -0.000007
    35  H    0.012096  -0.000102  -0.000082   0.032510   0.016011   0.002184
    36  H   -0.000519  -0.000008  -0.000003  -0.002249  -0.001709   0.000648
              25         26         27         28         29         30
     1  C    0.007214  -0.075465   0.034908  -0.006487   0.006073  -0.021787
     2  C    0.014496   0.021532  -0.002801   0.003616  -0.003119  -0.001030
     3  C   -0.093147   0.025429   0.013469  -0.023370   0.007043  -0.002560
     4  N    0.027507   0.020790  -0.001973   0.011288  -0.000199  -0.004038
     5  H    0.000066   0.001963  -0.005485   0.000215  -0.000094   0.000311
     6  H   -0.000227  -0.000137   0.000192  -0.000016   0.000004   0.000287
     7  H   -0.035196  -0.000232  -0.000033   0.000004  -0.000011  -0.000019
     8  C    0.016230   0.008289  -0.036206   0.015063  -0.009625   0.013414
     9  H   -0.000164   0.001120  -0.001779  -0.001236   0.000085   0.000418
    10  H   -0.000739   0.001448   0.001903   0.000400   0.000022  -0.000056
    11  H    0.001764  -0.002138  -0.001524  -0.002746  -0.000346   0.000309
    12  N    0.026982   0.002464  -0.001493  -0.002689  -0.000319   0.004292
    13  C   -0.022364  -0.001273   0.000001  -0.003401   0.000542  -0.000689
    14  H    0.001860  -0.000008   0.000002   0.000000  -0.000000   0.000003
    15  H    0.001274  -0.000019   0.000003   0.000004  -0.000001   0.000002
    16  C   -0.006716  -0.003869   0.001387   0.002348  -0.000383   0.002409
    17  H   -0.000881  -0.000006  -0.000001  -0.000001   0.000000  -0.000023
    18  H    0.001874   0.000039   0.000039  -0.000016  -0.000002   0.000019
    19  C   -0.078828   0.012502  -0.001888   0.000491   0.002903   0.002921
    20  H   -0.002417   0.000255  -0.000002  -0.000009  -0.000005  -0.000028
    21  H    0.011718   0.000014   0.000002  -0.000001  -0.000003  -0.000006
    22  S    0.263645  -0.041215  -0.000206   0.030002   0.014069  -0.021331
    23  O   -0.068186   0.003108  -0.000133  -0.005603  -0.007527  -0.002246
    24  O    0.027931   0.031902  -0.019985   0.001647  -0.004219   0.070187
    25  O    8.574331  -0.008191   0.000342  -0.002546   0.000342   0.000151
    26  P   -0.008191  12.631147   0.483395   0.208676   0.055232   0.240771
    27  O    0.000342   0.483395   8.398012  -0.047765   0.013392  -0.067011
    28  O   -0.002546   0.208676  -0.047765   8.151422   0.175946   0.037571
    29  H    0.000342   0.055232   0.013392   0.175946   0.419331  -0.037013
    30  O    0.000151   0.240771  -0.067011   0.037571  -0.037013   8.287106
    31  H   -0.002714   0.023272   0.008208  -0.002252   0.000513   0.138202
    32  O    0.000172   0.157045  -0.072042   0.003769   0.005671   0.023365
    33  H    0.000002   0.036530   0.000971  -0.011932  -0.000392  -0.006243
    34  O   -0.004253   0.015151   0.000584   0.051855  -0.079879   0.020970
    35  H    0.000741  -0.000928  -0.000010  -0.020785   0.033605  -0.001795
    36  H    0.000461   0.005752   0.000245  -0.008777   0.009615  -0.002091
              31         32         33         34         35         36
     1  C    0.016711  -0.009870   0.000011  -0.002622   0.000670   0.000287
     2  C    0.010452   0.005309  -0.000492   0.001584  -0.000391  -0.000183
     3  C   -0.002126   0.000684  -0.000233  -0.005877   0.002112   0.000156
     4  N    0.000898  -0.000685  -0.000112  -0.000863   0.000374   0.000047
     5  H   -0.000394   0.000156   0.000003   0.000026  -0.000004  -0.000001
     6  H   -0.000349  -0.000006   0.000000  -0.000003   0.000001   0.000000
     7  H    0.000014   0.000003   0.000000   0.000017  -0.000012   0.000000
     8  C   -0.006097  -0.002295   0.000673   0.004145  -0.001601  -0.000069
     9  H   -0.000155   0.000112  -0.000001  -0.000013   0.000002   0.000000
    10  H   -0.000002   0.000031  -0.000000  -0.000001  -0.000000   0.000000
    11  H   -0.000095   0.000012  -0.000007  -0.000011  -0.000042   0.000000
    12  N   -0.005836   0.000195  -0.000006   0.000410   0.000100  -0.000043
    13  C    0.003539   0.000340  -0.000030  -0.000345   0.000113   0.000005
    14  H    0.000002  -0.000000  -0.000000   0.000000  -0.000000  -0.000000
    15  H    0.000018  -0.000000   0.000000   0.000002  -0.000002   0.000000
    16  C   -0.004872  -0.000401   0.000011   0.000429   0.001167   0.000142
    17  H    0.000063   0.000000  -0.000000  -0.000001   0.000001   0.000000
    18  H   -0.000133  -0.000000  -0.000000   0.000010  -0.000016   0.000000
    19  C    0.000148   0.000056   0.000028  -0.012224   0.012096  -0.000519
    20  H   -0.000146   0.000001  -0.000000   0.000121  -0.000102  -0.000008
    21  H    0.000084  -0.000000   0.000000   0.000058  -0.000082  -0.000003
    22  S    0.033940  -0.003156   0.000043  -0.021926   0.032510  -0.002249
    23  O    0.008076   0.000765  -0.000077   0.023472   0.016011  -0.001709
    24  O    0.017939   0.006996   0.000520  -0.000007   0.002184   0.000648
    25  O   -0.002714   0.000172   0.000002  -0.004253   0.000741   0.000461
    26  P    0.023272   0.157045   0.036530   0.015151  -0.000928   0.005752
    27  O    0.008208  -0.072042   0.000971   0.000584  -0.000010   0.000245
    28  O   -0.002252   0.003769  -0.011932   0.051855  -0.020785  -0.008777
    29  H    0.000513   0.005671  -0.000392  -0.079879   0.033605   0.009615
    30  O    0.138202   0.023365  -0.006243   0.020970  -0.001795  -0.002091
    31  H    0.232733  -0.002383  -0.002201  -0.000279  -0.000845  -0.001487
    32  O   -0.002383   8.097962   0.235144  -0.011866   0.000359   0.000046
    33  H   -0.002201   0.235144   0.448591  -0.000007   0.000049  -0.000277
    34  O   -0.000279  -0.011866  -0.000007   8.103749   0.234921   0.300823
    35  H   -0.000845   0.000359   0.000049   0.234921   0.332357  -0.013440
    36  H   -0.001487   0.000046  -0.000277   0.300823  -0.013440   0.446792
 Mulliken charges:
               1
     1  C   -0.187102
     2  C   -0.140875
     3  C   -0.305317
     4  N    0.304593
     5  H    0.215136
     6  H    0.162935
     7  H    0.229549
     8  C   -0.512575
     9  H    0.221230
    10  H    0.173618
    11  H    0.245879
    12  N    0.279580
    13  C   -0.385812
    14  H    0.185950
    15  H    0.199954
    16  C   -0.191299
    17  H    0.172845
    18  H    0.179482
    19  C   -0.475336
    20  H    0.215923
    21  H    0.210720
    22  S    1.068410
    23  O   -0.487505
    24  O   -0.765576
    25  O   -0.652533
    26  P    1.145656
    27  O   -0.696716
    28  O   -0.554686
    29  H    0.398747
    30  O   -0.674743
    31  H    0.537553
    32  O   -0.435491
    33  H    0.299436
    34  O   -0.618148
    35  H    0.370683
    36  H    0.265834
 Sum of Mulliken charges =  -0.00000
 Mulliken charges with hydrogens summed into heavy atoms:
               1
     1  C    0.028034
     2  C    0.022060
     3  C   -0.075768
     4  N    0.304593
     8  C    0.128152
    12  N    0.279580
    13  C    0.000092
    16  C    0.161028
    19  C   -0.048693
    22  S    1.068410
    23  O   -0.487505
    24  O   -0.765576
    25  O   -0.652533
    26  P    1.145656
    27  O   -0.696716
    28  O   -0.155939
    30  O   -0.137190
    32  O   -0.136055
    34  O    0.018370
         Mulliken charges condensed to fragments:
      1     -0.038126
      2      0.019756
      3      0.018370
 Electronic spatial extent (au):  <R**2>=         227707.0428
 Charge=              0.0000 electrons
 Dipole moment (field-independent basis, Debye):
    X=              7.9485    Y=              3.1659    Z=              3.3903  Tot=              9.2030
 Quadrupole moment (field-independent basis, Debye-Ang):
   XX=             68.2742   YY=            -83.2721   ZZ=            -25.0090
   XY=            117.0170   XZ=            141.8826   YZ=             73.1120
 Traceless Quadrupole moment (field-independent basis, Debye-Ang):
   XX=             81.6098   YY=            -69.9365   ZZ=            -11.6734
   XY=            117.0170   XZ=            141.8826   YZ=             73.1120
 Octapole moment (field-independent basis, Debye-Ang**2):
  XXX=           -821.3930  YYY=          -3040.3460  ZZZ=          -2452.8185  XYY=           -124.7345
  XXY=           1246.4064  XXZ=           1413.8407  XZZ=            971.2188  YZZ=            310.0258
  YYZ=           -661.4628  XYZ=           1872.5984
 Hexadecapole moment (field-independent basis, Debye-Ang**3):
 XXXX=         -46197.3564 YYYY=         -62644.8999 ZZZZ=         -74347.0722 XXXY=            633.3520
 XXXZ=          -3127.4231 YYYX=         -26898.2643 YYYZ=         -33414.4274 ZZZX=         -14054.5186
 ZZZY=         -15693.8004 XXYY=          -1918.7652 XXZZ=           7806.4365 YYZZ=         -13806.9475
 XXYZ=          20901.0669 YYXZ=           2775.4094 ZZXY=          15986.0260
 N-N= 2.128204413725D+03 E-N=-8.334808832437D+03  KE= 1.722589878916D+03
 No NMR shielding tensors so no spin-rotation constants.
 Leave Link  601 at Thu May 12 12:50:58 2022, MaxMem=  5242880000 cpu:               3.1 elap:               0.2
 (Enter /data0/hywu0/study/g16/l122.exe)
 CPIOFr:  IOpCl= 0 IRwI=-1 IRwCP=  731 ICalc= -1 LCPTot=      609947 Len1MO=     1605619 IndFrg=      609947
 CPIOFr:  IOpCl= 0 IRwI=-1 IRwCP=  731 ICalc=  0 LCPTot=      609947 Len1MO=     1605619 IndFrg=     2215566
 Counterpoise: doing calculation for fragment   1 using the basis set of the full-system, NewBq=T
 Leave Link  122 at Thu May 12 12:50:58 2022, MaxMem=  5242880000 cpu:               0.4 elap:               0.0
 (Enter /data0/hywu0/study/g16/l301.exe)
 Basis read from rwf:  (5D, 7F)
 No pseudopotential information found on rwf file.
   631 basis functions,   962 primitive gaussians,   669 cartesian basis functions
    54 alpha electrons       54 beta electrons
       nuclear repulsion energy      1045.4263523702 Hartrees.
 IExCor= 4336 DFT=T Ex+Corr=M062X ExCW=0 ScaHFX=  0.540000
 ScaDFX=  1.000000  1.000000  1.000000  1.000000 ScalE2=  1.000000  1.000000
 IRadAn=      5 IRanWt=     -1 IRanGd=            0 ICorTp=0 IEmpDi=131
 NAtoms=   36 NActive=   36 NUniq=   36 SFac= 1.00D+00 NAtFMM=   60 NAOKFM=F Big=F
 Integral buffers will be    131072 words long.
 Raffenetti 2 integral format.
 Two-electron integral symmetry is turned off.
 R6Disp:  Grimme-D3 Dispersion energy=       -0.0011951318 Hartrees.
 Nuclear repulsion after empirical dispersion term =     1045.4251572384 Hartrees.
 No density basis found on file   718.
 Leave Link  301 at Thu May 12 12:50:58 2022, MaxMem=  5242880000 cpu:               0.9 elap:               0.1
 (Enter /data0/hywu0/study/g16/l302.exe)
 NPDir=0 NMtPBC=     1 NCelOv=     1 NCel=       1 NClECP=     1 NCelD=      1
         NCelK=      1 NCelE2=     1 NClLst=     1 CellRange=     0.0.
 One-electron integrals computed using PRISM.
 NBasis=   631 RedAO= T EigKep=  8.11D-06  NBF=   631
 NBsUse=   631 1.00D-06 EigRej= -1.00D+00 NBFU=   631
 Precomputing XC quadrature grid using
 IXCGrd= 4 IRadAn=           5 IRanWt=          -1 IRanGd=           0 AccXCQ= 0.00D+00.
 Generated NRdTot=       0 NPtTot=           0 NUsed=           0 NTot=          32
 NSgBfM=   668   668   668   668   668 MxSgAt=    36 MxSgA2=    36.
 Leave Link  302 at Thu May 12 12:50:59 2022, MaxMem=  5242880000 cpu:              11.7 elap:               0.7
 (Enter /data0/hywu0/study/g16/l303.exe)
 DipDrv:  MaxL=1.
 Leave Link  303 at Thu May 12 12:50:59 2022, MaxMem=  5242880000 cpu:               1.2 elap:               0.1
 (Enter /data0/hywu0/study/g16/l401.exe)
 ExpMin= 3.48D-02 ExpMax= 9.34D+04 ExpMxC= 3.17D+03 IAcc=3 IRadAn=         5 AccDes= 0.00D+00
 Harris functional with IExCor= 1009 and IRadAn=       5 diagonalized for initial guess.
 HarFok:  IExCor= 1009 AccDes= 0.00D+00 IRadAn=         5 IDoV= 1 UseB2=F ITyADJ=14
 ICtDFT=  3500011 ScaDFX=  1.000000  1.000000  1.000000  1.000000
 FoFCou: FMM=F IPFlag=           0 FMFlag=      100000 FMFlg1=           0
         NFxFlg=           0 DoJE=T BraDBF=F KetDBF=T FulRan=T
         wScrn=  0.000000 ICntrl=       500 IOpCl=  0 I1Cent=   200000004 NGrid=           0
         NMat0=    1 NMatS0=      1 NMatT0=    0 NMatD0=    1 NMtDS0=    0 NMtDT0=    0
 Symmetry not used in FoFCou.
 Harris En= -1006.80367065527    
 JPrj=0 DoOrth=F DoCkMO=F.
 Leave Link  401 at Thu May 12 12:51:02 2022, MaxMem=  5242880000 cpu:              51.2 elap:               3.2
 (Enter /data0/hywu0/study/g16/l502.exe)
 Two-electron integral symmetry not used.
 Closed shell SCF:
 Using DIIS extrapolation, IDIIS=  1040.
 NGot=  5242880000 LenX=  5241969541 LenY=  5241521311
 Requested convergence on RMS density matrix=1.00D-08 within 128 cycles.
 Requested convergence on MAX density matrix=1.00D-06.
 Requested convergence on             energy=1.00D-06.
 No special actions if energy rises.
 Fock matrices will be formed incrementally for  20 cycles.

 Cycle   1  Pass 1  IDiag  1:
 FoFJK:  IHMeth= 1 ICntrl=       0 DoSepK=F KAlg= 0 I1Cent=           0 FoldK=F
 IRaf= 830000000 NMat=       1 IRICut=       1 DoRegI=T DoRafI=F ISym2E= 0 IDoP0=0 IntGTp=1.
 FoFCou: FMM=F IPFlag=           0 FMFlag=      100000 FMFlg1=           0
         NFxFlg=           0 DoJE=F BraDBF=F KetDBF=F FulRan=T
         wScrn=  0.000000 ICntrl=         0 IOpCl=  0 I1Cent=           0 NGrid=           0
         NMat0=    1 NMatS0=      1 NMatT0=    0 NMatD0=    1 NMtDS0=    0 NMtDT0=    0
 Symmetry not used in FoFCou.
 E= -1006.77411686368    
 DIIS: error= 1.47D-02 at cycle   1 NSaved=   1.
 NSaved= 1 IEnMin= 1 EnMin= -1006.77411686368     IErMin= 1 ErrMin= 1.47D-02
 ErrMax= 1.47D-02  0.00D+00 EMaxC= 1.00D-01 BMatC= 7.14D-01 BMatP= 7.14D-01
 IDIUse=3 WtCom= 8.53D-01 WtEn= 1.47D-01
 Coeff-Com:  0.100D+01
 Coeff-En:   0.100D+01
 Coeff:      0.100D+01
 Gap=     0.272 Goal=   None    Shift=    0.000
 GapD=    0.272 DampG=1.000 DampE=0.500 DampFc=0.5000 IDamp=-1.
 Damping current iteration by 5.00D-01
 RMSDP=3.84D-03 MaxDP=3.63D-01              OVMax= 1.91D-01

 Cycle   2  Pass 1  IDiag  1:
 RMSU=  1.90D-03    CP:  9.70D-01
 E= -1006.96703686554     Delta-E=       -0.192920001868 Rises=F Damp=T
 DIIS: error= 5.54D-03 at cycle   2 NSaved=   2.
 NSaved= 2 IEnMin= 2 EnMin= -1006.96703686554     IErMin= 2 ErrMin= 5.54D-03
 ErrMax= 5.54D-03  0.00D+00 EMaxC= 1.00D-01 BMatC= 5.02D-02 BMatP= 7.14D-01
 IDIUse=3 WtCom= 9.45D-01 WtEn= 5.54D-02
 Coeff-Com:  0.318D-01 0.968D+00
 Coeff-En:   0.113D+00 0.887D+00
 Coeff:      0.364D-01 0.964D+00
 Gap=     0.268 Goal=   None    Shift=    0.000
 RMSDP=1.57D-03 MaxDP=2.83D-01 DE=-1.93D-01 OVMax= 1.19D-01

 Cycle   3  Pass 1  IDiag  1:
 RMSU=  1.33D-03    CP:  8.77D-01  9.12D-01
 E= -1007.20063568240     Delta-E=       -0.233598816854 Rises=F Damp=F
 DIIS: error= 2.86D-03 at cycle   3 NSaved=   3.
 NSaved= 3 IEnMin= 3 EnMin= -1007.20063568240     IErMin= 3 ErrMin= 2.86D-03
 ErrMax= 2.86D-03  0.00D+00 EMaxC= 1.00D-01 BMatC= 1.90D-02 BMatP= 5.02D-02
 IDIUse=3 WtCom= 9.71D-01 WtEn= 2.86D-02
 Coeff-Com: -0.622D-01 0.352D+00 0.710D+00
 Coeff-En:   0.000D+00 0.000D+00 0.100D+01
 Coeff:     -0.604D-01 0.342D+00 0.718D+00
 Gap=     0.264 Goal=   None    Shift=    0.000
 RMSDP=3.78D-04 MaxDP=2.55D-02 DE=-2.34D-01 OVMax= 2.93D-02

 Cycle   4  Pass 1  IDiag  1:
 RMSU=  3.48D-04    CP:  8.76D-01  9.86D-01  9.67D-01
 E= -1007.21236286728     Delta-E=       -0.011727184881 Rises=F Damp=F
 DIIS: error= 1.51D-03 at cycle   4 NSaved=   4.
 NSaved= 4 IEnMin= 4 EnMin= -1007.21236286728     IErMin= 4 ErrMin= 1.51D-03
 ErrMax= 1.51D-03  0.00D+00 EMaxC= 1.00D-01 BMatC= 3.04D-03 BMatP= 1.90D-02
 IDIUse=3 WtCom= 9.85D-01 WtEn= 1.51D-02
 Coeff-Com: -0.299D-01 0.853D-01 0.346D+00 0.598D+00
 Coeff-En:   0.000D+00 0.000D+00 0.101D+00 0.899D+00
 Coeff:     -0.294D-01 0.841D-01 0.342D+00 0.603D+00
 Gap=     0.261 Goal=   None    Shift=    0.000
 RMSDP=1.56D-04 MaxDP=1.77D-02 DE=-1.17D-02 OVMax= 1.17D-02

 Cycle   5  Pass 1  IDiag  1:
 RMSU=  9.97D-05    CP:  8.72D-01  9.80D-01  9.95D-01  6.96D-01
 E= -1007.21495086706     Delta-E=       -0.002587999786 Rises=F Damp=F
 DIIS: error= 2.29D-04 at cycle   5 NSaved=   5.
 NSaved= 5 IEnMin= 5 EnMin= -1007.21495086706     IErMin= 5 ErrMin= 2.29D-04
 ErrMax= 2.29D-04  0.00D+00 EMaxC= 1.00D-01 BMatC= 1.60D-04 BMatP= 3.04D-03
 IDIUse=3 WtCom= 9.98D-01 WtEn= 2.29D-03
 Coeff-Com: -0.951D-02 0.197D-01 0.114D+00 0.271D+00 0.605D+00
 Coeff-En:   0.000D+00 0.000D+00 0.000D+00 0.000D+00 0.100D+01
 Coeff:     -0.949D-02 0.197D-01 0.113D+00 0.271D+00 0.606D+00
 Gap=     0.261 Goal=   None    Shift=    0.000
 RMSDP=4.30D-05 MaxDP=2.61D-03 DE=-2.59D-03 OVMax= 2.75D-03

 Cycle   6  Pass 1  IDiag  1:
 RMSU=  2.90D-05    CP:  8.71D-01  9.80D-01  9.99D-01  7.55D-01  7.64D-01
 E= -1007.21505943564     Delta-E=       -0.000108568579 Rises=F Damp=F
 DIIS: error= 1.19D-04 at cycle   6 NSaved=   6.
 NSaved= 6 IEnMin= 6 EnMin= -1007.21505943564     IErMin= 6 ErrMin= 1.19D-04
 ErrMax= 1.19D-04  0.00D+00 EMaxC= 1.00D-01 BMatC= 2.43D-05 BMatP= 1.60D-04
 IDIUse=3 WtCom= 9.99D-01 WtEn= 1.19D-03
 Coeff-Com: -0.187D-02 0.170D-02 0.231D-01 0.811D-01 0.325D+00 0.571D+00
 Coeff-En:   0.000D+00 0.000D+00 0.000D+00 0.000D+00 0.353D-01 0.965D+00
 Coeff:     -0.187D-02 0.169D-02 0.231D-01 0.810D-01 0.325D+00 0.572D+00
 Gap=     0.261 Goal=   None    Shift=    0.000
 RMSDP=1.52D-05 MaxDP=1.76D-03 DE=-1.09D-04 OVMax= 9.91D-04

 Cycle   7  Pass 1  IDiag  1:
 RMSU=  1.38D-05    CP:  8.72D-01  9.80D-01  1.00D+00  7.65D-01  7.63D-01
                    CP:  8.39D-01
 E= -1007.21507777627     Delta-E=       -0.000018340625 Rises=F Damp=F
 DIIS: error= 2.12D-05 at cycle   7 NSaved=   7.
 NSaved= 7 IEnMin= 7 EnMin= -1007.21507777627     IErMin= 7 ErrMin= 2.12D-05
 ErrMax= 2.12D-05  0.00D+00 EMaxC= 1.00D-01 BMatC= 1.24D-06 BMatP= 2.43D-05
 IDIUse=1 WtCom= 1.00D+00 WtEn= 0.00D+00
 Coeff-Com:  0.492D-03-0.180D-02-0.608D-02-0.294D-02 0.472D-01 0.203D+00
 Coeff-Com:  0.760D+00
 Coeff:      0.492D-03-0.180D-02-0.608D-02-0.294D-02 0.472D-01 0.203D+00
 Coeff:      0.760D+00
 Gap=     0.261 Goal=   None    Shift=    0.000
 RMSDP=4.46D-06 MaxDP=4.30D-04 DE=-1.83D-05 OVMax= 2.76D-04

 Cycle   8  Pass 1  IDiag  1:
 RMSU=  3.05D-06    CP:  8.72D-01  9.79D-01  1.00D+00  7.67D-01  7.83D-01
                    CP:  8.80D-01  9.40D-01
 E= -1007.21507900582     Delta-E=       -0.000001229552 Rises=F Damp=F
 DIIS: error= 7.22D-06 at cycle   8 NSaved=   8.
 NSaved= 8 IEnMin= 8 EnMin= -1007.21507900582     IErMin= 8 ErrMin= 7.22D-06
 ErrMax= 7.22D-06  0.00D+00 EMaxC= 1.00D-01 BMatC= 1.14D-07 BMatP= 1.24D-06
 IDIUse=1 WtCom= 1.00D+00 WtEn= 0.00D+00
 Coeff-Com:  0.343D-03-0.706D-03-0.480D-02-0.101D-01-0.209D-01 0.146D-02
 Coeff-Com:  0.244D+00 0.790D+00
 Coeff:      0.343D-03-0.706D-03-0.480D-02-0.101D-01-0.209D-01 0.146D-02
 Coeff:      0.244D+00 0.790D+00
 Gap=     0.261 Goal=   None    Shift=    0.000
 RMSDP=1.75D-06 MaxDP=2.20D-04 DE=-1.23D-06 OVMax= 1.72D-04

 Cycle   9  Pass 1  IDiag  1:
 RMSU=  1.19D-06    CP:  8.72D-01  9.79D-01  1.00D+00  7.68D-01  7.93D-01
[...]
 Mulliken charges with hydrogens summed into heavy atoms:
               1
     1  C    0.000000
     2  C    0.000000
     3  C    0.000000
     4  N    0.000000
     8  C    0.000000
    12  N    0.000000
    13  C    0.000000
    16  C    0.000000
    19  C    0.000000
    22  S    0.000000
    23  O    0.000000
    24  O    0.000000
    25  O    0.000000
    26  P    1.261174
    27  O   -0.622567
    28  O   -0.204913
    30  O   -0.237923
    32  O   -0.195772
    34  O    0.000000
         Mulliken charges condensed to fragments:
      1      0.000000
      2     -0.000000
      3      0.000000
 Electronic spatial extent (au):  <R**2>=          49738.5938
 Charge=             -0.0000 electrons
 Dipole moment (field-independent basis, Debye):
    X=             -0.1881    Y=              4.9456    Z=             -4.2977  Tot=              6.5548
 Quadrupole moment (field-independent basis, Debye-Ang):
   XX=            -37.2700   YY=             37.2143   ZZ=           -133.7747
   XY=             50.4681   XZ=            -43.5244   YZ=             25.6396
 Traceless Quadrupole moment (field-independent basis, Debye-Ang):
   XX=              7.3402   YY=             81.8244   ZZ=            -89.1646
   XY=             50.4681   XZ=            -43.5244   YZ=             25.6396
 Octapole moment (field-independent basis, Debye-Ang**2):
  XXX=          -1059.3723  YYY=             65.6465  ZZZ=          -2892.9109  XYY=            395.8230
  XXY=            288.6607  XXZ=           -819.9383  XZZ=          -1335.8544  YZZ=           -311.6746
  YYZ=            205.6604  XYZ=            282.0801
 Hexadecapole moment (field-independent basis, Debye-Ang**3):
 XXXX=         -20902.4326 YYYY=          -2452.2641 ZZZZ=         -53224.5892 XXXY=          -1507.7611
 XXXZ=         -15812.8757 YYYX=            937.7556 YYYZ=           -804.6793 ZZZX=         -28913.9480
 ZZZY=         -13271.5811 XXYY=           2634.8268 XXZZ=         -17683.8029 YYZZ=          -2001.8045
 XXYZ=            514.8578 YYXZ=           2445.2092 ZZXY=          -2731.4215
 N-N= 2.800063761219D+02 E-N=-2.087675255915D+03  KE= 6.425349845859D+02
 No NMR shielding tensors so no spin-rotation constants.
 Leave Link  601 at Thu May 12 13:00:28 2022, MaxMem=  5242880000 cpu:               1.1 elap:               0.1
 (Enter /data0/hywu0/study/g16/l122.exe)
 CPIOFr:  IOpCl= 0 IRwI=-1 IRwCP=  731 ICalc=  5 LCPTot=      609947 Len1MO=     1605619 IndFrg=    10243661
 Counterpoise: doing calculation for fragment   3 using the basis set of the fragment.
 Leave Link  122 at Thu May 12 13:00:28 2022, MaxMem=  5242880000 cpu:               0.2 elap:               0.0
 (Enter /data0/hywu0/study/g16/l301.exe)
 Basis read from rwf:  (5D, 7F)
 No pseudopotential information found on rwf file.
    39 basis functions,    58 primitive gaussians,    41 cartesian basis functions
     5 alpha electrons        5 beta electrons
       nuclear repulsion energy         9.0583095566 Hartrees.
 IExCor= 4336 DFT=T Ex+Corr=M062X ExCW=0 ScaHFX=  0.540000
 ScaDFX=  1.000000  1.000000  1.000000  1.000000 ScalE2=  1.000000  1.000000
 IRadAn=      5 IRanWt=     -1 IRanGd=            0 ICorTp=0 IEmpDi=131
 NAtoms=   36 NActive=    3 NUniq=    3 SFac= 1.00D+00 NAtFMM=   60 NAOKFM=F Big=F
 Integral buffers will be    131072 words long.
 Raffenetti 2 integral format.
 Two-electron integral symmetry is turned off.
 R6Disp:  Grimme-D3 Dispersion energy=       -0.0000000075 Hartrees.
 Nuclear repulsion after empirical dispersion term =        9.0583095491 Hartrees.
 No density basis found on file   718.
 Leave Link  301 at Thu May 12 13:00:28 2022, MaxMem=  5242880000 cpu:               0.8 elap:               0.1
 (Enter /data0/hywu0/study/g16/l302.exe)
 NPDir=0 NMtPBC=     1 NCelOv=     1 NCel=       1 NClECP=     1 NCelD=      1
         NCelK=      1 NCelE2=     1 NClLst=     1 CellRange=     0.0.
 One-electron integrals computed using PRISM.
 NBasis=    39 RedAO= T EigKep=  3.03D-03  NBF=    39
 NBsUse=    39 1.00D-06 EigRej= -1.00D+00 NBFU=    39
 Precomputing XC quadrature grid using
 IXCGrd= 4 IRadAn=           5 IRanWt=          -1 IRanGd=           0 AccXCQ= 0.00D+00.
 Generated NRdTot=       0 NPtTot=           0 NUsed=           0 NTot=          32
 NSgBfM=    41    41    41    41    41 MxSgAt=     3 MxSgA2=     3.
 Leave Link  302 at Thu May 12 13:00:28 2022, MaxMem=  5242880000 cpu:               1.3 elap:               0.1
 (Enter /data0/hywu0/study/g16/l303.exe)
 DipDrv:  MaxL=1.
 Leave Link  303 at Thu May 12 13:00:28 2022, MaxMem=  5242880000 cpu:               0.3 elap:               0.0
 (Enter /data0/hywu0/study/g16/l401.exe)
 ExpMin= 8.45D-02 ExpMax= 8.59D+03 ExpMxC= 1.30D+03 IAcc=3 IRadAn=         5 AccDes= 0.00D+00
 Harris functional with IExCor= 1009 and IRadAn=       5 diagonalized for initial guess.
 HarFok:  IExCor= 1009 AccDes= 0.00D+00 IRadAn=         5 IDoV= 1 UseB2=F ITyADJ=14
 ICtDFT=  3500011 ScaDFX=  1.000000  1.000000  1.000000  1.000000
 FoFCou: FMM=F IPFlag=           0 FMFlag=      100000 FMFlg1=           0
         NFxFlg=           0 DoJE=T BraDBF=F KetDBF=T FulRan=T
         wScrn=  0.000000 ICntrl=       500 IOpCl=  0 I1Cent=   200000004 NGrid=           0
         NMat0=    1 NMatS0=      1 NMatT0=    0 NMatD0=    1 NMtDS0=    0 NMtDT0=    0
 Symmetry not used in FoFCou.
 Harris En= -76.4154869991933    
 JPrj=0 DoOrth=F DoCkMO=F.
 Leave Link  401 at Thu May 12 13:00:29 2022, MaxMem=  5242880000 cpu:               1.6 elap:               0.1
 (Enter /data0/hywu0/study/g16/l502.exe)
 Keep R1 ints in memory in canonical form, NReq=14132037.
 FoFCou: FMM=F IPFlag=           0 FMFlag=           0 FMFlg1=           0
         NFxFlg=           0 DoJE=F BraDBF=F KetDBF=F FulRan=T
         wScrn=  0.000000 ICntrl=       600 IOpCl=  0 I1Cent=           0 NGrid=           0
         NMat0=    1 NMatS0=    780 NMatT0=    0 NMatD0=    1 NMtDS0=    0 NMtDT0=    0
 Symmetry not used in FoFCou.
 Two-electron integral symmetry not used.
 Closed shell SCF:
 Using DIIS extrapolation, IDIIS=  1040.
 NGot=  5242880000 LenX=  5242569899 LenY=  5242567777
 Requested convergence on RMS density matrix=1.00D-08 within 128 cycles.
 Requested convergence on MAX density matrix=1.00D-06.
 Requested convergence on             energy=1.00D-06.
 No special actions if energy rises.
 Integral accuracy reduced to 1.0D-05 until final iterations.

 Cycle   1  Pass 0  IDiag  1:
 E= -76.3461993389969    
 DIIS: error= 6.95D-02 at cycle   1 NSaved=   1.
 NSaved= 1 IEnMin= 1 EnMin= -76.3461993389969     IErMin= 1 ErrMin= 6.95D-02
 ErrMax= 6.95D-02  0.00D+00 EMaxC= 1.00D-01 BMatC= 1.20D-01 BMatP= 1.20D-01
 IDIUse=3 WtCom= 3.05D-01 WtEn= 6.95D-01
 Coeff-Com:  0.100D+01
 Coeff-En:   0.100D+01
 Coeff:      0.100D+01
 Gap=     0.324 Goal=   None    Shift=    0.000
 GapD=    0.324 DampG=1.000 DampE=0.500 DampFc=0.5000 IDamp=-1.
 Damping current iteration by 5.00D-01
 RMSDP=7.99D-03 MaxDP=1.00D-01              OVMax= 1.67D-01

 Cycle   2  Pass 0  IDiag  1:
 E= -76.3772219100064     Delta-E=       -0.031022571010 Rises=F Damp=T
 DIIS: error= 1.10D-02 at cycle   2 NSaved=   2.
 NSaved= 2 IEnMin= 2 EnMin= -76.3772219100064     IErMin= 2 ErrMin= 1.10D-02
 ErrMax= 1.10D-02  0.00D+00 EMaxC= 1.00D-01 BMatC= 4.91D-03 BMatP= 1.20D-01
 IDIUse=3 WtCom= 8.90D-01 WtEn= 1.10D-01
 Coeff-Com:  0.852D-01 0.915D+00
 Coeff-En:   0.192D+00 0.808D+00
 Coeff:      0.969D-01 0.903D+00
 Gap=     0.456 Goal=   None    Shift=    0.000
 RMSDP=9.60D-04 MaxDP=1.43D-02 DE=-3.10D-02 OVMax= 1.00D-01

 Cycle   3  Pass 0  IDiag  1:
 E= -76.4210097154373     Delta-E=       -0.043787805431 Rises=F Damp=F
 DIIS: error= 2.18D-03 at cycle   3 NSaved=   3.
 NSaved= 3 IEnMin= 3 EnMin= -76.4210097154373     IErMin= 3 ErrMin= 2.18D-03
 ErrMax= 2.18D-03  0.00D+00 EMaxC= 1.00D-01 BMatC= 9.31D-05 BMatP= 4.91D-03
 IDIUse=3 WtCom= 9.78D-01 WtEn= 2.18D-02
 Coeff-Com: -0.201D-01 0.402D-01 0.980D+00
 Coeff-En:   0.000D+00 0.000D+00 0.100D+01
 Coeff:     -0.197D-01 0.393D-01 0.980D+00
 Gap=     0.460 Goal=   None    Shift=    0.000
 RMSDP=1.16D-04 MaxDP=9.48D-04 DE=-4.38D-02 OVMax= 3.37D-03

 Cycle   4  Pass 0  IDiag  1:
 E= -76.4210892419213     Delta-E=       -0.000079526484 Rises=F Damp=F
 DIIS: error= 4.21D-04 at cycle   4 NSaved=   4.
 NSaved= 4 IEnMin= 4 EnMin= -76.4210892419213     IErMin= 4 ErrMin= 4.21D-04
 ErrMax= 4.21D-04  0.00D+00 EMaxC= 1.00D-01 BMatC= 3.37D-06 BMatP= 9.31D-05
 IDIUse=3 WtCom= 9.96D-01 WtEn= 4.21D-03
 Coeff-Com: -0.197D-02-0.223D-02 0.163D+00 0.841D+00
 Coeff-En:   0.000D+00 0.000D+00 0.000D+00 0.100D+01
 Coeff:     -0.196D-02-0.222D-02 0.162D+00 0.842D+00
 Gap=     0.461 Goal=   None    Shift=    0.000
 RMSDP=2.25D-05 MaxDP=3.58D-04 DE=-7.95D-05 OVMax= 5.48D-04

 Cycle   5  Pass 0  IDiag  1:
 E= -76.4210913370387     Delta-E=       -0.000002095117 Rises=F Damp=F
 DIIS: error= 9.09D-05 at cycle   5 NSaved=   5.
 NSaved= 5 IEnMin= 5 EnMin= -76.4210913370387     IErMin= 5 ErrMin= 9.09D-05
 ErrMax= 9.09D-05  0.00D+00 EMaxC= 1.00D-01 BMatC= 8.59D-08 BMatP= 3.37D-06
 IDIUse=1 WtCom= 1.00D+00 WtEn= 0.00D+00
 Coeff-Com:  0.121D-02-0.184D-02-0.374D-01-0.656D-01 0.110D+01
 Coeff:      0.121D-02-0.184D-02-0.374D-01-0.656D-01 0.110D+01
 Gap=     0.461 Goal=   None    Shift=    0.000
 RMSDP=9.18D-06 MaxDP=1.03D-04 DE=-2.10D-06 OVMax= 2.09D-04

 Initial convergence to 1.0D-05 achieved.  Increase integral accuracy.
 Cycle   6  Pass 1  IDiag  1:
 E= -76.4210824453818     Delta-E=        0.000008891657 Rises=F Damp=F
 DIIS: error= 1.66D-05 at cycle   1 NSaved=   1.
 NSaved= 1 IEnMin= 1 EnMin= -76.4210824453818     IErMin= 1 ErrMin= 1.66D-05
 ErrMax= 1.66D-05  0.00D+00 EMaxC= 1.00D-01 BMatC= 1.38D-08 BMatP= 1.38D-08
 IDIUse=1 WtCom= 1.00D+00 WtEn= 0.00D+00
 Coeff-Com:  0.100D+01
 Coeff:      0.100D+01
 Gap=     0.461 Goal=   None    Shift=    0.000
 RMSDP=9.18D-06 MaxDP=1.03D-04 DE= 8.89D-06 OVMax= 4.59D-05

 Cycle   7  Pass 1  IDiag  1:
 E= -76.4210824574035     Delta-E=       -0.000000012022 Rises=F Damp=F
 DIIS: error= 1.17D-05 at cycle   2 NSaved=   2.
 NSaved= 2 IEnMin= 2 EnMin= -76.4210824574035     IErMin= 2 ErrMin= 1.17D-05
 ErrMax= 1.17D-05  0.00D+00 EMaxC= 1.00D-01 BMatC= 2.05D-09 BMatP= 1.38D-08
 IDIUse=1 WtCom= 1.00D+00 WtEn= 0.00D+00
 Coeff-Com:  0.141D+00 0.859D+00
 Coeff:      0.141D+00 0.859D+00
 Gap=     0.461 Goal=   None    Shift=    0.000
 RMSDP=9.43D-07 MaxDP=1.42D-05 DE=-1.20D-08 OVMax= 2.35D-05

 Cycle   8  Pass 1  IDiag  1:
 E= -76.4210824580148     Delta-E=       -0.000000000611 Rises=F Damp=F
 DIIS: error= 7.45D-06 at cycle   3 NSaved=   3.
 NSaved= 3 IEnMin= 3 EnMin= -76.4210824580148     IErMin= 3 ErrMin= 7.45D-06
 ErrMax= 7.45D-06  0.00D+00 EMaxC= 1.00D-01 BMatC= 1.47D-09 BMatP= 2.05D-09
 IDIUse=1 WtCom= 1.00D+00 WtEn= 0.00D+00
 Coeff-Com: -0.534D-01 0.466D+00 0.587D+00
 Coeff:     -0.534D-01 0.466D+00 0.587D+00
 Gap=     0.461 Goal=   None    Shift=    0.000
 RMSDP=4.58D-07 MaxDP=5.96D-06 DE=-6.11D-10 OVMax= 1.04D-05

 Cycle   9  Pass 1  IDiag  1:
 E= -76.4210824589930     Delta-E=       -0.000000000978 Rises=F Damp=F
 DIIS: error= 5.50D-07 at cycle   4 NSaved=   4.
 NSaved= 4 IEnMin= 4 EnMin= -76.4210824589930     IErMin= 4 ErrMin= 5.50D-07
 ErrMax= 5.50D-07  0.00D+00 EMaxC= 1.00D-01 BMatC= 4.08D-12 BMatP= 1.47D-09
 IDIUse=1 WtCom= 1.00D+00 WtEn= 0.00D+00
 Coeff-Com: -0.168D-02-0.318D-01-0.169D-01 0.105D+01
 Coeff:     -0.168D-02-0.318D-01-0.169D-01 0.105D+01
 Gap=     0.461 Goal=   None    Shift=    0.000
 RMSDP=8.54D-08 MaxDP=6.11D-07 DE=-9.78D-10 OVMax= 1.51D-06

 Cycle  10  Pass 1  IDiag  1:
 E= -76.4210824590008     Delta-E=       -0.000000000008 Rises=F Damp=F
 DIIS: error= 8.20D-08 at cycle   5 NSaved=   5.
 NSaved= 5 IEnMin= 5 EnMin= -76.4210824590008     IErMin= 5 ErrMin= 8.20D-08
 ErrMax= 8.20D-08  0.00D+00 EMaxC= 1.00D-01 BMatC= 2.73D-13 BMatP= 4.08D-12
 IDIUse=1 WtCom= 1.00D+00 WtEn= 0.00D+00
 Coeff-Com:  0.278D-02-0.310D-01-0.350D-01 0.114D+00 0.950D+00
 Coeff:      0.278D-02-0.310D-01-0.350D-01 0.114D+00 0.950D+00
 Gap=     0.461 Goal=   None    Shift=    0.000
 RMSDP=2.53D-08 MaxDP=1.71D-07 DE=-7.84D-12 OVMax= 4.14D-07

 Cycle  11  Pass 1  IDiag  1:
 E= -76.4210824590013     Delta-E=       -0.000000000000 Rises=F Damp=F
 DIIS: error= 1.58D-08 at cycle   6 NSaved=   6.
 NSaved= 6 IEnMin= 6 EnMin= -76.4210824590013     IErMin= 6 ErrMin= 1.58D-08
 ErrMax= 1.58D-08  0.00D+00 EMaxC= 1.00D-01 BMatC= 5.80D-15 BMatP= 2.73D-13
 IDIUse=1 WtCom= 1.00D+00 WtEn= 0.00D+00
 Coeff-Com:  0.215D-03-0.865D-03-0.105D-02-0.267D-01 0.149D-01 0.101D+01
 Coeff:      0.215D-03-0.865D-03-0.105D-02-0.267D-01 0.149D-01 0.101D+01
 Gap=     0.461 Goal=   None    Shift=    0.000
 RMSDP=4.11D-09 MaxDP=3.03D-08 DE=-4.69D-13 OVMax= 8.40D-08

 SCF Done:  E(RM062X) =  -76.4210824590     A.U. after   11 cycles
            NFock= 11  Conv=0.41D-08     -V/T= 2.0032
 KE= 7.618048851201D+01 PE=-1.989586057096D+02 EE= 3.729872518951D+01
 Leave Link  502 at Thu May 12 13:00:29 2022, MaxMem=  5242880000 cpu:               5.7 elap:               0.4
 (Enter /data0/hywu0/study/g16/l601.exe)
 Copying SCF densities to generalized density rwf, IOpCl= 0 IROHF=0.

 **********************************************************************

            Population analysis using the SCF density.

 **********************************************************************

 Alpha  occ. eigenvalues --  -19.62744  -1.13230  -0.60249  -0.47718  -0.39977
 Alpha virt. eigenvalues --    0.06111   0.13247   0.17436   0.17945   0.18901
 Alpha virt. eigenvalues --    0.23457   0.50120   0.53661   0.98133   1.00439
 Alpha virt. eigenvalues --    1.05985   1.17313   1.20113   1.31801   1.34198
 Alpha virt. eigenvalues --    1.70362   1.73910   1.75248   2.06372   2.10034
 Alpha virt. eigenvalues --    2.36224   2.38899   2.54877   2.86822   3.01235
 Alpha virt. eigenvalues --    5.05596   5.48193   5.89381   6.78528   6.80008
 Alpha virt. eigenvalues --    6.87372   6.91604   7.09737  49.95236
          Condensed to atoms (all electrons):
              34         35         36
    34  O    7.921808   0.312807   0.318640
    35  H    0.312807   0.431407  -0.023417
    36  H    0.318640  -0.023417   0.430723
 Mulliken charges:
               1
     1  C    0.000000
     2  C    0.000000
     3  C    0.000000
     4  N    0.000000
     5  H    0.000000
     6  H    0.000000
     7  H    0.000000
     8  C    0.000000
     9  H    0.000000
    10  H    0.000000
    11  H    0.000000
    12  N    0.000000
    13  C    0.000000
    14  H    0.000000
    15  H    0.000000
    16  C    0.000000
    17  H    0.000000
    18  H    0.000000
    19  C    0.000000
    20  H    0.000000
    21  H    0.000000
    22  S    0.000000
    23  O    0.000000
    24  O    0.000000
    25  O    0.000000
    26  P    0.000000
    27  O    0.000000
    28  O    0.000000
    29  H    0.000000
    30  O    0.000000
    31  H    0.000000
    32  O    0.000000
    33  H    0.000000
    34  O   -0.553256
    35  H    0.279202
    36  H    0.274053
 Sum of Mulliken charges =  -0.00000
 Mulliken charges with hydrogens summed into heavy atoms:
               1
     1  C    0.000000
     2  C    0.000000
     3  C    0.000000
     4  N    0.000000
     8  C    0.000000
    12  N    0.000000
    13  C    0.000000
    16  C    0.000000
    19  C    0.000000
    22  S    0.000000
    23  O    0.000000
    24  O    0.000000
    25  O    0.000000
    26  P    0.000000
    27  O    0.000000
    28  O    0.000000
    30  O    0.000000
    32  O    0.000000
    34  O   -0.000000
         Mulliken charges condensed to fragments:
      1      0.000000
      2      0.000000
      3     -0.000000
 Electronic spatial extent (au):  <R**2>=          10146.5527
 Charge=             -0.0000 electrons
 Dipole moment (field-independent basis, Debye):
    X=              1.8012    Y=              0.5348    Z=             -1.0334  Tot=              2.1444
 Quadrupole moment (field-independent basis, Debye-Ang):
   XX=             25.7152   YY=              4.4199   ZZ=            -25.9625
   XY=             24.1806   XZ=              8.8117   YZ=             -4.0672
 Traceless Quadrupole moment (field-independent basis, Debye-Ang):
   XX=             24.3243   YY=              3.0291   ZZ=            -27.3534
   XY=             24.1806   XZ=              8.8117   YZ=             -4.0672
 Octapole moment (field-independent basis, Debye-Ang**2):
  XXX=            259.4125  YYY=            -33.0492  ZZZ=           -468.9658  XYY=            248.8292
  XXY=            323.2152  XXZ=            175.8452  XZZ=            -50.5161  YZZ=           -189.7127
  YYZ=            -39.7128  XYZ=            158.2618
 Hexadecapole moment (field-independent basis, Debye-Ang**3):
 XXXX=           2085.5992 YYYY=          -1844.7345 ZZZZ=          -7321.2473 XXXY=           3269.8080
 XXXZ=           1881.2544 YYYX=           1966.5349 YYYZ=          -1055.9354 ZZZX=          -2359.1316
 ZZZY=          -3937.1950 XXYY=           3414.5907 XXZZ=            532.3191 YYZZ=          -1807.6029
 XXYZ=           2497.2960 YYXZ=           1747.1598 ZZXY=            263.6398
 N-N= 9.058309549095D+00 E-N=-1.989586058399D+02  KE= 7.618048851201D+01
 No NMR shielding tensors so no spin-rotation constants.
 Leave Link  601 at Thu May 12 13:00:29 2022, MaxMem=  5242880000 cpu:               1.0 elap:               0.1
 (Enter /data0/hywu0/study/g16/l122.exe)
 CPIOFr:  IOpCl= 0 IRwI=-1 IRwCP=  731 ICalc=  6 LCPTot=      609947 Len1MO=     1605619 IndFrg=    11849280
 Restoring MOs from calculation   1 to rwf.
 CPIOFr:  IOpCl= 0 IRwI=-2 IRwCP=  731 ICalc=  0 LCPTot=      609947 Len1MO=     1605619 IndFrg=     2215566
 Counterpoise corrected energy =   -1727.863938002559
                   BSSE energy =       0.004563840139
              sum of fragments =   -1727.775417277191
           complexation energy =     -58.41 kcal/mole (raw)
           complexation energy =     -55.55 kcal/mole (corrected)
 Leave Link  122 at Thu May 12 13:00:29 2022, MaxMem=  5242880000 cpu:               0.4 elap:               0.0
 (Enter /data0/hywu0/study/g16/l9999.exe)
 1\1\GINC-LOCALHOST\SP\RM062X\6-311+G(2d,p)\C7H17N2O8P1S1\HYWU0\12-May-
 2022\0\\#p M062X/6-311+G(2d,p) nosymm em=GD3 counterpoise=3\\Title Car
 d Required\\0,1\C,0,13.019317,7.600925,13.723741\C,0,14.10783,8.386505
 ,13.36933\C,0,12.664473,9.677322,14.523689\N,0,12.143072,8.415066,14.4
 43624\H,0,12.80082,6.569532,13.48725\H,0,14.967352,8.140943,12.777405\
 H,0,12.181389,10.542534,14.98218\C,0,10.813392,8.053957,14.901764\H,0,
 10.624942,6.968061,14.768453\H,0,10.667483,8.318435,15.960416\H,0,10.0
 40719,8.582247,14.286169\N,0,13.880392,9.668066,13.884937\C,0,14.68132
 3,10.860533,13.601814\H,0,15.691953,10.717184,14.049426\H,0,14.212132,
 11.739681,14.110209\C,0,14.811109,11.14551,12.087824\H,0,15.753402,11.
 708007,11.922217\H,0,14.937165,10.189252,11.529317\C,0,13.646809,11.93
 6798,11.50239\H,0,13.831339,12.160308,10.436197\H,0,13.531922,12.91509
 9,11.998018\S,0,12.08515,11.023759,11.64179\O,0,11.152739,11.564715,10
 .639504\O,0,12.493082,9.608985,11.381433\O,0,11.702353,11.233616,13.05
 8693\P,0,10.095917,7.006538,11.296277\O,0,10.614643,6.208537,12.407217
 \O,0,9.184088,8.176025,11.864852\H,0,9.002549,8.905827,11.143513\O,0,1
 1.102335,7.633407,10.254473\H,0,11.702962,8.390108,10.73155\O,0,9.1632
 02,6.107958,10.359215\H,0,9.128078,6.527746,9.425385\O,0,8.826825,10.2
 65605,9.971905\H,0,9.568321,10.852727,10.264758\H,0,9.109442,9.988498,
 9.103083\\Version=ES64L-G16RevA.03\HF=-76.4210825\RMSD=4.113e-09\Dipol
 e=3.1840989,1.2787158,1.311818\Quadrupole=61.9592051,-51.6567347,-10.3
 024703,88.6985112,106.3052611,54.5706537\PG=C01 [X(C7H17N2O8P1S1)]\\@


 YOU ARE IN A MAZE OF TWISTY LITTLE PASSAGES.
 Job cpu time:       0 days  3 hours 27 minutes 43.5 seconds.
 Elapsed time:       0 days  0 hours 13 minutes  3.7 seconds.
 File lengths (MBytes):  RWF=    329 Int=      0 D2E=      0 Chk=    113 Scr=      1
 Normal termination of Gaussian 16 at Thu May 12 13:00:29 2022.
