          46
 Energy =  -1866.13078790 a.u.  #Cluster:    1
C           7.99388300      9.08303800     11.78374100
H           7.78430400      8.27196600     11.05432400
H           7.15772000      9.13651600     12.49178900
H           8.90412100      8.77538000     12.35007400
C           9.31449000     10.22011000     10.04676300
H           8.88903300      9.69214000      9.16094300
H          10.08296900      9.51013300     10.46601500
C           8.56901400     11.43409600     12.10562000
H           8.52326400     12.44990200     11.68854700
H           7.90447500     11.38045700     12.98078600
H           9.60964300     11.27714400     12.48810000
C           6.93967700     10.79551400     10.39777900
H           6.12781900     10.96350900     11.12110500
H           7.07842300     11.71268500      9.80376100
H           6.60600100      9.99671100      9.69992300
C           9.98128400     11.53177900      9.61772600
H          10.54925100     11.98157400     10.46630800
H           9.22231800     12.28072500      9.32217000
C          10.92774000     11.28644200      8.44696400
H          11.23299700     12.24595800      7.99152200
H          10.42642500     10.73033600      7.63092400
N           8.21544300     10.39496800     11.08328100
S          12.42461700     10.38982300      8.93516800
O          13.00548700     11.14715500     10.05970100
O          11.89428100      9.05383000      9.38017900
O          13.23309800     10.31807300      7.70743300
P          12.18975100      9.21760600     12.88295500
O          10.78437600      9.64823300     12.88905400
O          13.27223100     10.35061400     12.68594600
H          13.21150100     10.71406400     11.68576400
O          12.56649400      8.60387700     14.30587200
H          13.56128100      8.32916700     14.26478700
O          12.52954900      8.03802500     11.88192600
H          12.28625500      8.34672700     10.89582600
O           7.34354000      7.79105600      9.07573200
H           6.91206100      7.01700200      8.73147900
H           8.28240400      7.70646700      8.77055700
O           9.88076300      7.59740500      8.19921000
H           9.93941700      8.03130100      7.33720900
H          10.64253800      7.97357900      8.69963400
O          10.09445500      9.07343800      5.81409000
H           9.71113400      8.76249700      5.00265700
H          11.06211200      9.14555100      5.62340700
O          12.74677900      9.21487300      5.31056100
H          13.22128400      8.39493700      5.42077600
H          13.00432100      9.73363400      6.12192500
          46
 Energy =  -1866.13058480 a.u.  #Cluster:    2
C           7.91877500      9.14100100     11.82717200
H           7.77075800      8.32676200     11.08511400
H           7.01814700      9.20088800     12.45159200
H           8.76921800      8.83409400     12.47339600
C           9.38223300     10.26053000     10.19331900
H           9.01623300      9.75454900      9.26884100
H          10.09805200      9.52857300     10.66265400
C           8.48782600     11.48616500     12.18609500
H           8.51065100     12.49947900     11.75937700
H           7.73731600     11.46130200     12.99018200
H           9.48154800     11.30700200     12.66506900
C           6.99290600     10.85535800     10.35420500
H           6.12809500     11.04033600     11.00760400
H           7.18936200     11.76155500      9.76010900
H           6.70661000     10.04789700      9.63998400
C          10.11220200     11.56074400      9.83766400
H          10.69813600     11.93011600     10.71306000
H           9.39220200     12.36229800      9.58585900
C          11.04708900     11.34143500      8.65245500
H          11.42521800     12.31020700      8.27833600
H          10.51188200     10.89147100      7.79393700
N           8.20617700     10.44820600     11.14052300
S          12.47290100     10.30140500      9.06326900
O          13.17179000     10.98304500     10.16759000
O          11.83903800      9.01181500      9.50960300
O          13.21805300     10.17904900      7.79950300
P          12.20976500      9.21703600     13.02963900
O          10.87522700      9.82805200     13.05026900
O          13.43519300     10.18248400     12.78849100
H          13.38397000     10.55377600     11.78967400
O          12.53002800      8.57707100     14.45529800
H          13.47749500      8.17028600     14.40066100
O          12.36440800      7.98148900     12.04717200
H          12.17060800      8.30140400     11.05750600
O           7.28992300      8.01446000      9.08245700
H           6.79894100      7.30409500      8.68482900
H           8.22897300      7.85628100      8.79762900
O           9.81026300      7.63063100      8.25822400
H           9.86920400      8.11983300      7.42515100
H          10.57504600      7.97446300      8.78051600
O           9.97141800      9.27102900      5.98333100
H           9.53181400      9.03511700      5.17511000
H          10.93203200      9.30113900      5.74667000
O          12.59367500      9.29325100      5.35037600
H          12.90854300      9.73186300      6.18880500
H          13.02107400      8.44097700      5.38169900
          46
 Energy =  -1866.13017020 a.u.  #Cluster:    3
C           7.98363600      8.88651000     11.81656200
H           7.79361100      8.14427000     11.01643500
H           7.17586400      8.81759400     12.55628900
H           8.93428900      8.58156600     12.31633900
C           9.15322000     10.25544000     10.15063400
H           8.71720900      9.76549300      9.24787100
H           9.98813800      9.57013200     10.47809000
C           8.46065800     11.22480200     12.35192600
H           8.33069700     12.27244600     12.04642900
H           7.85962800     11.03995400     13.25462700
H           9.53192800     11.10007300     12.65519900
C           6.77362200     10.67761500     10.67440600
H           5.99845500     10.73622600     11.45335800
H           6.83877300     11.65409300     10.16871700
H           6.43087300      9.93941000      9.91806400
C           9.71237900     11.63616100      9.79388900
H          10.29275900     12.06043200     10.64703600
H           8.89461100     12.35358500      9.59288700
C          10.61188100     11.53752200      8.56540100
H          10.83270200     12.54538300      8.16985200
H          10.11265900     11.00075700      7.73966800
N           8.10215300     10.27466700     11.24830300
S          12.19242800     10.71694500      8.91904300
O          12.79007900     11.46082700     10.04236200
O          11.78093900      9.33083900      9.33069500
O          12.91343600     10.75059800      7.63718100
P          12.23757500      9.27614600     12.78423700
O          10.79417900      9.54208300     12.86877600
O          13.17207800     10.54235700     12.63522100
H          13.06474300     10.94161000     11.65611400
O          12.73965900      8.62296800     14.14947600
H          13.75669100      8.46792300     14.05648000
O          12.67077900      8.21655800     11.69188100
H          12.32842700      8.55351900     10.74275900
O           7.13883900      7.99128700      8.71040300
H           6.73221200      7.35953300      8.12718200
H           8.10480400      7.88542900      8.55259400
O           9.81734300      7.73268000      8.29000100
H          10.12478800      7.62441100      7.37782700
H          10.55066900      8.21500100      8.72983800
O          10.85148000      7.51780200      5.69712800
H          11.64921200      8.09366100      5.66120900
H          11.20098300      6.63914900      5.57320300
O          13.17108100      8.96944900      5.61666500
H          13.15859100      9.54711500      6.42404300
H          13.28926400      9.58799500      4.90371600
          46
 Energy =  -1866.13014000 a.u.  #Cluster:    4
C           7.91001700      8.95228100     11.76456800
H           7.74311900      8.16496100     11.00321600
H           7.05255900      8.96242800     12.44956500
H           8.81194300      8.64719300     12.34718600
C           9.23906200     10.16191200     10.09396600
H           8.83777500      9.63652800      9.19458800
H          10.01903200      9.46415200     10.51501000
C           8.44941500     11.30082300     12.17965900
H           8.38252300     12.33017300     11.80027000
H           7.78462000     11.19891900     13.05031300
H           9.49267900     11.15699900     12.56087600
C           6.85123500     10.70883000     10.43292900
H           6.03205800     10.85037100     11.15398300
H           6.99049900     11.64563700      9.87014800
H           6.52402100      9.93563700      9.70526300
C           9.88157300     11.49382300      9.69498400
H          10.42380600     11.94597700     10.55872700
H           9.11079400     12.22994500      9.39729500
C          10.85280300     11.28519800      8.53809100
H          11.13784300     12.25827900      8.09734200
H          10.38611100     10.72199800      7.70834600
N           8.12248400     10.29376500     11.11739300
S          12.37387700     10.43018800      9.03554700
O          12.94556200     11.21482400     10.14367300
O          11.88775200      9.08710100      9.50182700
O          13.15795200     10.36680700      7.78777200
P          12.11279700      9.24926500     12.98024500
O          10.67982100      9.57468600     12.94643100
O          13.10876900     10.46567400     12.81457700
H          13.08752400     10.79883900     11.80597400
O          12.49458800      8.67041300     14.41596900
H          13.50823800      8.47175900     14.40423300
O          12.57317800      8.10319200     11.99062000
H          12.30874600      8.38777000     11.00120700
O           7.21829400      7.88358900      8.67681600
H           6.83043700      7.24504800      8.08784300
H           8.18711800      7.72435500      8.60840700
O           9.90262400      7.48589200      8.48822100
H          10.22986600      7.35694100      7.58531300
H          10.63001700      7.97154700      8.93258400
O          11.04120100      7.30243400      5.93982200
H          11.31639000      8.21021200      5.69668700
H          11.86422400      6.83781900      6.07774500
O          12.04516100      9.83394900      5.40818500
H          12.49844800     10.04919500      6.26616300
H          12.72146300      9.94269300      4.75043300
          46
 Energy =  -1866.13002900 a.u.  #Cluster:    5
C           8.04616500      8.87738200     11.80174000
H           7.89604600      8.06071900     11.06392000
H           7.20838100      8.86316700     12.50976000
H           8.97632300      8.63128600     12.36600100
C           9.28239200     10.12282600     10.07855400
H           8.89564600      9.57389700      9.18771700
H          10.10032800      9.46706500     10.49319400
C           8.44634800     11.26246500     12.14556900
H           8.32490000     12.27544200     11.73703500
H           7.78792000     11.15136700     13.01989400
H           9.49593700     11.18108700     12.52768600
C           6.87140500     10.52032700     10.42907600
H           6.04869300     10.62450300     11.15223100
H           6.94405900     11.44896600      9.84126700
H           6.59687800      9.70387900      9.72585000
C           9.85314500     11.48158500      9.65888100
H          10.38043300     11.96983900     10.51234900
H           9.04319100     12.17352000      9.36014500
C          10.82287800     11.30837200      8.49408100
H          11.05145000     12.28700800      8.03589800
H          10.37485700     10.70680700      7.67926400
N           8.17206200     10.20873800     11.11413100
S          12.38699100     10.53889700      8.99607300
O          12.89256700     11.34254500     10.12472300
O          11.96459400      9.16483300      9.43534100
O          13.20435700     10.54555800      7.77164400
P          12.21395400      9.33409100     12.93340700
O          10.77685300      9.64333000     12.92482900
O          13.19617900     10.55809300     12.75395500
H          13.11756100     10.91878500     11.75459500
O          12.62563600      8.75045500     14.35940300
H          13.63983400      8.55786200     14.32785900
O          12.66598300      8.19293600     11.93326500
H          12.40309500      8.48227500     10.94557200
O           7.50100000      7.57059300      9.06750300
H           7.14182400      6.76408400      8.71393600
H           8.44044500      7.57906800      8.75635900
O          10.05340100      7.63307800      8.18854600
H          10.12643600      8.06521400      7.32671100
H          10.79360800      8.02305400      8.70926500
O          10.27140600      9.05069800      5.76278000
H          11.23823800      9.20386200      5.62511400
H          10.02254500      8.47792100      5.04402500
O          12.93201300      9.40676800      5.36551500
H          13.15131200      9.70043200      6.29249100
H          13.21074800     10.14534200      4.83286200
          46
 Energy =  -1866.12968660 a.u.  #Cluster:    6
C           7.88701300      8.89046600     11.73680600
H           7.72951000      8.14787300     10.92515800
H           7.00676500      8.87257700     12.39217300
H           8.76645400      8.54531500     12.32419300
C           9.28587800     10.17784900     10.18339900
H           8.91268600      9.72558700      9.23395400
H          10.03325600      9.43549800     10.58562100
C           8.41750100     11.20870500     12.29441000
H           8.40821500     12.25607200     11.95934800
H           7.68965400     11.09490800     13.11161300
H           9.42731300     11.01361000     12.73193700
C           6.88945300     10.71683800     10.45252600
H           6.03730600     10.81564100     11.14037900
H           7.05172100     11.68195900      9.94829800
H           6.59934000      9.97886600      9.66749300
C           9.97187800     11.51888300      9.90495400
H          10.56966700     11.84269700     10.78971000
H           9.22552000     12.31703000      9.72988600
C          10.88011400     11.40858500      8.68525800
H          11.22801500     12.41216800      8.37769600
H          10.33703200     11.01270200      7.80656800
N           8.12920400     10.26223900     11.16744600
S          12.34640500     10.37880600      8.97209700
O          13.11109700     11.03650400     10.04395700
O          11.77858200      9.06119000      9.41722600
O          12.98208800     10.31617100      7.64066100
P          12.24249900      9.11408800     12.89405800
O          10.84825400      9.56979500     12.95132900
O          13.34474800     10.22929700     12.69467800
H          13.30392000     10.58256000     11.69391300
O          12.65050400      8.45796300     14.28899800
H          13.63963300      8.17077100     14.21315500
O          12.53176900      7.95520000     11.85262700
H          12.24226600      8.28754600     10.88914100
O           7.13178000      8.10810200      8.82964200
H           6.65252800      7.51797300      8.25771000
H           8.08346900      7.87825000      8.68138100
O           9.72880700      7.49900600      8.45979900
H           9.98040800      7.43503900      7.52466800
H          10.48659700      7.96933500      8.87212900
O          10.63143300      7.50872000      5.82010200
H          11.47183900      7.05534700      5.85435800
H          10.86905100      8.43885600      5.62448200
O          11.54576100     10.08992400      5.40096900
H          12.12495800     10.18886600      6.20505000
H          12.12813200     10.25464500      4.66906200
          46
 Energy =  -1866.12960660 a.u.  #Cluster:    7
C           7.92733900      8.83693400     11.71205500
H           7.78119100      8.15307400     10.84843500
H           7.06626100      8.73000200     12.38411100
H           8.83602700      8.48697300     12.25052700
C           9.23030600     10.29822000     10.23385000
H           8.85892300      9.88585600      9.26614800
H          10.02510100      9.57238300     10.57272000
C           8.37523000     11.12851000     12.43432000
H           8.31081600     12.19658000     12.18092700
H           7.67763200     10.91961000     13.25900000
H           9.40558800     10.94736900     12.82898400
C           6.82022900     10.70943000     10.59610700
H           5.98256900     10.71568500     11.30858200
H           6.92683600     11.71702700     10.16587800
H           6.54304800     10.02208300      9.76231200
C           9.84010700     11.68800700     10.02568600
H          10.44716900     11.98496500     10.91365000
H           9.05120900     12.45671400      9.92307800
C          10.71744800     11.70007900      8.77753400
H          11.01407200     12.73568500      8.52973300
H          10.16906400     11.33228000      7.89353300
N           8.09643800     10.25790200     11.24563000
S          12.23539100     10.72167000      8.96870400
O          12.98146000     11.35050400     10.07171600
O          11.73293500      9.35536500      9.34317800
O          12.85672300     10.75943500      7.63486700
P          12.29912900      9.18253200     12.79485200
O          10.88344200      9.54935100     12.92501100
O          13.32753200     10.37405300     12.65011000
H          13.24017800     10.79272800     11.67745300
O          12.78769400      8.45276200     14.12601800
H          13.78886000      8.23149600     14.00235200
O          12.62175200      8.12179700     11.66319500
H          12.28128900      8.50481400     10.73486400
O           7.13956500      8.25142400      8.74849200
H           6.67496500      7.67720200      8.14936800
H           8.09714800      8.06094600      8.58250300
O           9.75484800      7.73749100      8.34950700
H          10.03321900      7.63512500      7.42558400
H          10.49489000      8.23676400      8.76124400
O          10.68961400      7.53360800      5.72869400
H          11.04434300      6.65895700      5.59055400
H          11.48126700      8.11778300      5.67348000
O          12.99126100      8.99782800      5.59063500
H          13.01872400      9.56720500      6.40466900
H          13.08118400      9.62381200      4.88016400
          46
 Energy =  -1866.12892930 a.u.  #Cluster:    8
C           7.96851800      8.83695100     11.66813800
H           7.91297500      8.14450900     10.80115800
H           7.06332200      8.70773800     12.27472600
H           8.84659900      8.51581800     12.27258500
C           9.28036800     10.29970800     10.21041700
H           8.91708300      9.89482100      9.23595000
H          10.06352500      9.56633700     10.56201300
C           8.39204400     11.13294900     12.39758900
H           8.33039400     12.20052700     12.14064600
H           7.68102500     10.92441800     13.21096100
H           9.41580500     10.95531300     12.80889400
C           6.86391200     10.70867300     10.54108100
H           6.02023400     10.72779400     11.24588900
H           6.97872700     11.70990700     10.09786800
H           6.58883600     10.01457200      9.71136600
C           9.91116300     11.68042800     10.01115100
H          10.52093500     11.96413800     10.90095200
H           9.13498500     12.46228500      9.90968100
C          10.78910700     11.67989700      8.76314700
H          11.12151300     12.70883700      8.53172600
H          10.22536200     11.34892600      7.87309900
N           8.13275000     10.26082500     11.20594900
S          12.27410700     10.64748900      8.92429000
O          13.08403700     11.26733300      9.98590200
O          11.74337300      9.30457800      9.34307200
O          12.84500200     10.63267200      7.56588500
P          12.33340200      9.20759100     12.78743800
O          10.92022600      9.58659700     12.90629500
O          13.36984200     10.38864600     12.61333900
H          13.30867100     10.76356900     11.62181100
O          12.81624500      8.50818600     14.13650900
H          13.81715900      8.28143100     14.02136100
O          12.65085500      8.11912500     11.68031300
H          12.30200800      8.48012000     10.74669800
O           7.14520500      8.42386400      8.48841800
H           6.78104600      7.98170800      7.72919600
H           8.07477100      8.09617100      8.54941200
O           9.69782500      7.57503100      8.70444200
H          10.00227500      7.25839100      7.83579300
H          10.44499100      8.14500400      8.99479800
O          10.77433100      6.94573600      6.21897200
H          11.57910900      6.45869600      6.38181100
H          11.08415600      7.81402600      5.88423000
O          11.85306900      9.36966600      5.39405700
H          12.21187100      9.83873100      6.19154300
H          12.55726800      9.42028400      4.75945400
          46
 Energy =  -1866.09910120 a.u.  #Cluster:    9
C           7.90096200      9.07599900     11.91278000
H           7.61287000      8.30482200     11.16470700
H           7.09833700      9.15556800     12.65634900
H           8.81934500      8.70983500     12.43999400
C           9.31796800     10.18576400     10.23596300
H           8.95859000      9.49064500      9.43042100
H          10.13682100      9.61080500     10.76868700
C           8.57919200     11.40611300     12.29533600
H           8.76017300     12.40561400     11.87846500
H           7.81983900     11.48628600     13.08617300
H           9.53242200     11.07221000     12.79658900
C           6.94260000     10.86675200     10.51532700
H           6.10192400     11.02443900     11.20676600
H           7.11997300     11.80175100      9.96172100
H           6.62272800     10.09591600      9.77060200
C           9.89185300     11.46736500      9.62518600
H          10.45093900     12.04610500     10.39662200
H           9.07907900     12.13162800      9.26541300
C          10.81949600     11.14810400      8.46013300
H          11.10875700     12.08497100      7.94169400
H          10.27712400     10.58030000      7.66075000
N           8.18690200     10.40248000     11.23741800
S          12.25672800     10.25881600      8.97793200
O          12.87970600     11.01367200     10.08864200
O          11.74090700      8.92492100      9.51154100
O          13.08570700     10.05813000      7.77872600
P          12.16803700      9.11512500     12.80063100
O          10.72791900      9.49271400     12.74685100
O          13.23549100     10.32125700     12.62513500
H          13.32193500     10.75616400     11.66642700
O          12.61604800      8.49926500     14.24953600
H          13.58783800      8.29960200     14.35453500
O          12.63217500      7.97182100     11.75869900
H          12.34560000      8.10384900     10.73266300
O           7.23281700      8.19948800      9.09240700
H           6.78576700      7.45706900      8.70113400
H           8.19803700      8.10573600      8.80025400
O           9.70003600      7.66887300      8.26365400
H           9.94388000      8.06449100      7.39434800
H          10.48307200      7.83213900      8.84699900
O          10.43241200      9.16143700      6.12333000
H          11.44918000      9.08164000      5.97579200
H          10.04098900      8.92150300      5.29270400
O          13.00603300      8.94871700      5.68258000
H          13.29332100      8.53573600      6.53103400
H          13.27849000      9.88438000      5.81737600
          46
 Energy =  -1866.09223340 a.u.  #Cluster:   10
C           7.89437600      9.02731600     11.77570500
H           7.56730500      8.36097400     10.94748600
H           7.12995100      9.00923300     12.56225200
H           8.83504900      8.59418700     12.20397800
C           9.20671500     10.33679200     10.16302200
H           8.74761500      9.79681800      9.29120500
H          10.03498000      9.66238500     10.53445900
C           8.63649100     11.28315500     12.41488700
H           8.80160600     12.32830500     12.12116500
H           7.93647600     11.26164300     13.26236200
H           9.61826500     10.88175100     12.79741100
C           6.87335000     10.99248400     10.69637200
H           6.08047300     11.05569000     11.45630600
H           7.02453100     11.99513100     10.26710000
H           6.50143200     10.33183700      9.87523900
C           9.79717600     11.67247600      9.70130600
H          10.44506500     12.10881200     10.49704900
H           8.99699300     12.41520600      9.50754800
C          10.61109900     11.47357400      8.42681700
H          10.83326900     12.45392200      7.96004900
H           9.99845200     10.94191200      7.65557200
N           8.15677800     10.43059100     11.26576000
S          12.10167700     10.57429100      8.73472200
O          12.72763000     11.13849300      9.94868800
O          11.65298000      9.13364600      9.03530600
O          12.89584300     10.60336100      7.50238200
P          12.20563600      8.91414600     12.37706600
O          10.77072300      9.30879100     12.44292100
O          13.28697800     10.12195900     12.33526100
H          13.32614800     10.69977400     11.45860200
O          12.70635600      8.08551400     13.69563300
H          13.67772700      7.85769400     13.72391800
O          12.60113900      7.93672200     11.15442800
H          12.25495300      8.21462300     10.17687600
O           7.06776400      8.47831200      8.87760500
H           6.48498000      7.86459300      8.44748000
H           7.91594300      8.47124400      8.33366000
O           9.41167000      8.73279500      7.59884800
H           9.67160200      8.21906200      6.79653300
H          10.17089600      8.54555200      8.22634000
O          11.39368300      7.56434600      6.75235600
H          11.98985000      7.95774500      6.06161700
H          11.83180800      7.76641900      7.59807200
O          13.19071900      9.14171100      5.59287900
H          12.72288800      9.99492600      5.61561200
H          13.81298100      9.22011700      6.34017200
          46
 Energy =  -1866.09053670 a.u.  #Cluster:   11
C           7.60035500      8.58742100     11.14877400
H           7.28771900      8.24851200     10.13091000
H           6.73304500      8.48907600     11.81729600
H           8.38551900      7.89374500     11.50047400
C           9.32423900     10.03585900     10.16042200
H           8.99092000      9.67939400      9.14959500
H          10.07826900      9.28092500     10.52024800
C           8.48074200     10.45158100     12.49065600
H           8.99962900     11.42939400     12.50148200
H           7.61367600     10.49472200     13.15920900
H           9.24961500      9.77093600     12.94342500
C           7.02228800     10.90378400     10.54987700
H           6.14114700     10.92366100     11.20727200
H           7.38238200     11.93853500     10.41784300
H           6.68732500     10.53952700      9.54726300
C          10.00441900     11.40678400     10.04383700
H          10.61001400     11.60716000     10.96413300
H           9.25163400     12.22069000      9.99383800
C          10.87786900     11.46507200      8.79759200
H          11.14407700     12.51787700      8.57338300
H          10.28648100     11.14255900      7.90080800
N           8.11570200     10.01238000     11.09658200
S          12.33428600     10.47971400      8.94598300
O          13.22376400     11.11213400      9.93678600
O          11.87434000      9.11298800      9.47408600
O          12.87262400     10.30669800      7.58580500
P          12.47423200      9.61318800     12.77339000
O          11.14084200     10.26523000     12.71634400
O          13.78109200     10.51970800     12.45794800
H          13.85259400     10.93899700     11.49966300
O          12.85258100      9.03686200     14.26016300
H          13.78569700      8.70246700     14.37013600
O          12.62135200      8.29665800     11.84214800
H          12.41104600      8.41572500     10.79893700
O           7.02407600      9.00726900      8.22428900
H           6.48590900      8.53567700      7.60297100
H           7.89713400      9.20167900      7.74250200
O           9.32366500      9.46245900      7.00343700
H           9.95618700      8.63560200      7.28274100
H           9.24482800      9.39878700      6.06107900
O          10.86862400      7.54422200      7.60010300
H          11.29794700      7.86071100      8.45359000
H          11.60199100      7.66796700      6.90846200
O          12.62756000      8.56745700      5.95007400
H          12.26193600      9.47809800      5.95832700
H          13.42865100      8.67012400      6.50614000
