          46
 G =       -0.821868 Gcorr = 0.267744 a.u. Nimag =   0 Frame:     1 Step:     1 Geom:     1
C           8.03311300      8.89590600     11.81923100
H           7.95523500      8.02731700     11.13216000
H           7.16725500      8.88093300     12.49277800
H           8.95042200      8.73783900     12.43319600
C           9.25410000     10.08820000     10.04443900
H           8.89896200      9.50652900      9.16134800
H          10.07145800      9.45891500     10.49776100
C           8.32012200     11.31052100     12.02198600
H           8.18027700     12.29139100     11.54600800
H           7.63176100     11.23207600     12.87674400
H           9.35628200     11.28808000     12.44385000
C           6.82228600     10.39434500     10.31808800
H           5.97747300     10.50972200     11.01253900
H           6.87106000     11.28176000      9.66816400
H           6.60233900      9.51712400      9.66586400
C           9.81458000     11.44235800      9.59604100
H          10.34449600     11.94734600     10.43819000
H           8.99876600     12.12420400      9.28979300
C          10.77728800     11.25531800      8.42748800
H          11.01514800     12.23099200      7.96609500
H          10.31688100     10.65971600      7.61536700
N           8.11732800     10.18589600     11.05043000
S          12.33369600     10.47005100      8.92096200
O          12.88358100     11.30305300     10.00660400
O          11.89643800      9.11984100      9.42113500
O          13.12616000     10.40461600      7.68224500
P          12.16771900      9.48719500     12.92023100
O          10.73764500      9.82566200     12.89918000
O          13.17865100     10.67385100     12.67097700
H          13.10525300     10.97779900     11.65095500
O          12.57221300      8.96762200     14.37280500
H          13.58234100      8.75407000     14.34922200
O          12.58615900      8.28243700     11.97991200
H          12.33042100      8.52428200     10.97943300
O           7.44102400      7.54716500      9.14678200
H           7.04500800      6.75565000      8.79904600
H           8.38840700      7.49802800      8.85741200
O           9.99891100      7.45448700      8.31007600
H          10.01948900      7.86641300      7.43483700
H          10.73016700      7.90780500      8.79290700
O          10.06622700      8.88300400      5.89060800
H          11.02473200      9.01207900      5.68234500
H           9.69094300      8.53413900      5.09091100
O          12.69310000      9.18018300      5.33665100
H          12.92392400      9.74646300      6.12407500
H          13.22118200      8.39763600      5.47315100
          46
 G =       -0.818960 Gcorr = 0.269649 a.u. Nimag =   0 Frame:     2 Step:     2 Geom:     2
C           7.98363600      8.88651000     11.81656200
H           7.79361100      8.14427000     11.01643500
H           7.17586400      8.81759400     12.55628900
H           8.93428900      8.58156600     12.31633900
C           9.15322000     10.25544000     10.15063400
H           8.71720900      9.76549300      9.24787100
H           9.98813800      9.57013200     10.47809000
C           8.46065800     11.22480200     12.35192600
H           8.33069700     12.27244600     12.04642900
H           7.85962800     11.03995400     13.25462700
H           9.53192800     11.10007300     12.65519900
C           6.77362200     10.67761500     10.67440600
H           5.99845500     10.73622600     11.45335800
H           6.83877300     11.65409300     10.16871700
H           6.43087300      9.93941000      9.91806400
C           9.71237900     11.63616100      9.79388900
H          10.29275900     12.06043200     10.64703600
H           8.89461100     12.35358500      9.59288700
C          10.61188100     11.53752200      8.56540100
H          10.83270200     12.54538300      8.16985200
H          10.11265900     11.00075700      7.73966800
N           8.10215300     10.27466700     11.24830300
S          12.19242800     10.71694500      8.91904300
O          12.79007900     11.46082700     10.04236200
O          11.78093900      9.33083900      9.33069500
O          12.91343600     10.75059800      7.63718100
P          12.23757500      9.27614600     12.78423700
O          10.79417900      9.54208300     12.86877600
O          13.17207800     10.54235700     12.63522100
H          13.06474300     10.94161000     11.65611400
O          12.73965900      8.62296800     14.14947600
H          13.75669100      8.46792300     14.05648000
O          12.67077900      8.21655800     11.69188100
H          12.32842700      8.55351900     10.74275900
O           7.13883900      7.99128700      8.71040300
H           6.73221200      7.35953300      8.12718200
H           8.10480400      7.88542900      8.55259400
O           9.81734300      7.73268000      8.29000100
H          10.12478800      7.62441100      7.37782700
H          10.55066900      8.21500100      8.72983800
O          10.85148000      7.51780200      5.69712800
H          11.64921200      8.09366100      5.66120900
H          11.20098300      6.63914900      5.57320300
O          13.17108100      8.96944900      5.61666500
H          13.15859100      9.54711500      6.42404300
H          13.28926400      9.58799500      4.90371600
          46
 G =       -0.818898 Gcorr = 0.269711 a.u. Nimag =   0 Frame:     3 Step:     3 Geom:     3
C           8.01104900      8.86284500     11.89202600
H           7.85079000      8.07759800     11.12721800
H           7.19773000      8.80634100     12.62671800
H           8.96460300      8.61014300     12.41485600
C           9.15869500     10.18304300     10.17231300
H           8.74648200      9.63736900      9.29056100
H          10.00944800      9.53910300     10.54047000
C           8.41561800     11.23707200     12.31746200
H           8.25917600     12.26454900     11.96026000
H           7.81057600     11.07877300     13.22252800
H           9.48674900     11.15807800     12.63620700
C           6.76258300     10.56074100     10.65308600
H           5.97769400     10.63360600     11.42102800
H           6.80490200     11.51350300     10.10179800
H           6.44948900      9.77754100      9.92983100
C           9.68158400     11.56059600      9.75367400
H          10.24030700     12.04273100     10.59038200
H           8.84564800     12.24307500      9.51016800
C          10.59672600     11.42880700      8.53993100
H          10.79277300     12.42227900      8.09772700
H          10.12202800     10.83820200      7.73677200
N           8.09594200     10.22477000     11.25806400
S          12.19614100     10.67268200      8.94812800
O          12.75965100     11.48670000     10.04003200
O          11.81968300      9.29653000      9.42220700
O          12.93030800     10.66585400      7.67339000
P          12.24181400      9.42174900     12.87891800
O          10.79058300      9.64900700     12.93784300
O          13.14073200     10.70628000     12.67723400
H          13.03258600     11.05422800     11.67878200
O          12.74865600      8.84974000     14.27842400
H          13.77060700      8.72031000     14.20188800
O          12.71666200      8.32406000     11.84290100
H          12.37516500      8.60493600     10.87550400
O           7.22540800      7.79434400      8.82558000
H           6.84261600      7.12304900      8.27109900
H           8.19537300      7.71034600      8.67930900
O           9.91370300      7.59735100      8.43550500
H          10.23431700      7.45583400      7.53247500
H          10.62827800      8.11956100      8.86030500
O          10.98420800      7.28785300      5.86758200
H          11.76606300      7.88364100      5.81223400
H          11.35934000      6.41441800      5.79117300
O          13.26243000      8.79963200      5.74248400
H          13.22388200      9.41382900      6.52153200
H          13.37122100      9.38732300      5.00241100
          46
 G =       -0.818848 Gcorr = 0.269424 a.u. Nimag =   0 Frame:     4 Step:     4 Geom:     4
C           7.91001700      8.95228100     11.76456800
H           7.74311900      8.16496100     11.00321600
H           7.05255900      8.96242800     12.44956500
H           8.81194300      8.64719300     12.34718600
C           9.23906200     10.16191200     10.09396600
H           8.83777500      9.63652800      9.19458800
H          10.01903200      9.46415200     10.51501000
C           8.44941500     11.30082300     12.17965900
H           8.38252300     12.33017300     11.80027000
H           7.78462000     11.19891900     13.05031300
H           9.49267900     11.15699900     12.56087600
C           6.85123500     10.70883000     10.43292900
H           6.03205800     10.85037100     11.15398300
H           6.99049900     11.64563700      9.87014800
H           6.52402100      9.93563700      9.70526300
C           9.88157300     11.49382300      9.69498400
H          10.42380600     11.94597700     10.55872700
H           9.11079400     12.22994500      9.39729500
C          10.85280300     11.28519800      8.53809100
H          11.13784300     12.25827900      8.09734200
H          10.38611100     10.72199800      7.70834600
N           8.12248400     10.29376500     11.11739300
S          12.37387700     10.43018800      9.03554700
O          12.94556200     11.21482400     10.14367300
O          11.88775200      9.08710100      9.50182700
O          13.15795200     10.36680700      7.78777200
P          12.11279700      9.24926500     12.98024500
O          10.67982100      9.57468600     12.94643100
O          13.10876900     10.46567400     12.81457700
H          13.08752400     10.79883900     11.80597400
O          12.49458800      8.67041300     14.41596900
H          13.50823800      8.47175900     14.40423300
O          12.57317800      8.10319200     11.99062000
H          12.30874600      8.38777000     11.00120700
O           7.21829400      7.88358900      8.67681600
H           6.83043700      7.24504800      8.08784300
H           8.18711800      7.72435500      8.60840700
O           9.90262400      7.48589200      8.48822100
H          10.22986600      7.35694100      7.58531300
H          10.63001700      7.97154700      8.93258400
O          11.04120100      7.30243400      5.93982200
H          11.31639000      8.21021200      5.69668700
H          11.86422400      6.83781900      6.07774500
O          12.04516100      9.83394900      5.40818500
H          12.49844800     10.04919500      6.26616300
H          12.72146300      9.94269300      4.75043300
          46
 G =       -0.821266 Gcorr = 0.267999 a.u. Nimag =   0 Frame:     5 Step:     5 Geom:     5
C           8.04616500      8.87738200     11.80174000
H           7.89604600      8.06071900     11.06392000
H           7.20838100      8.86316700     12.50976000
H           8.97632300      8.63128600     12.36600100
C           9.28239200     10.12282600     10.07855400
H           8.89564600      9.57389700      9.18771700
H          10.10032800      9.46706500     10.49319400
C           8.44634800     11.26246500     12.14556900
H           8.32490000     12.27544200     11.73703500
H           7.78792000     11.15136700     13.01989400
H           9.49593700     11.18108700     12.52768600
C           6.87140500     10.52032700     10.42907600
H           6.04869300     10.62450300     11.15223100
H           6.94405900     11.44896600      9.84126700
H           6.59687800      9.70387900      9.72585000
C           9.85314500     11.48158500      9.65888100
H          10.38043300     11.96983900     10.51234900
H           9.04319100     12.17352000      9.36014500
C          10.82287800     11.30837200      8.49408100
H          11.05145000     12.28700800      8.03589800
H          10.37485700     10.70680700      7.67926400
N           8.17206200     10.20873800     11.11413100
S          12.38699100     10.53889700      8.99607300
O          12.89256700     11.34254500     10.12472300
O          11.96459400      9.16483300      9.43534100
O          13.20435700     10.54555800      7.77164400
P          12.21395400      9.33409100     12.93340700
O          10.77685300      9.64333000     12.92482900
O          13.19617900     10.55809300     12.75395500
H          13.11756100     10.91878500     11.75459500
O          12.62563600      8.75045500     14.35940300
H          13.63983400      8.55786200     14.32785900
O          12.66598300      8.19293600     11.93326500
H          12.40309500      8.48227500     10.94557200
O           7.50100000      7.57059300      9.06750300
H           7.14182400      6.76408400      8.71393600
H           8.44044500      7.57906800      8.75635900
O          10.05340100      7.63307800      8.18854600
H          10.12643600      8.06521400      7.32671100
H          10.79360800      8.02305400      8.70926500
O          10.27140600      9.05069800      5.76278000
H          11.23823800      9.20386200      5.62511400
H          10.02254500      8.47792100      5.04402500
O          12.93201300      9.40676800      5.36551500
H          13.15131200      9.70043200      6.29249100
H          13.21074800     10.14534200      4.83286200
          46
 G =       -0.809097 Gcorr = 0.251666 a.u. Nimag =   0 Frame:     6 Step:     6 Geom:     6
C           7.89809500      9.23240700     11.80926900
H           7.61373200      8.43819100     11.08432500
H           7.08299000      9.34923000     12.53411600
H           8.80148500      8.87403100     12.36697000
C           9.36156500     10.26269800     10.12159300
H           9.00948300      9.54156400      9.33589100
H          10.16321100      9.69930500     10.69147500
C           8.59921200     11.56637200     12.12028400
H           8.80288400     12.54724400     11.67084300
H           7.82522100     11.68592900     12.89168000
H           9.53741700     11.23856200     12.65294500
C           6.99018500     10.98247700     10.32920500
H           6.13835600     11.17508000     10.99778500
H           7.19008500     11.89472300      9.74609200
H           6.67493600     10.18919100      9.60643100
C           9.96172200     11.51393700      9.47417400
H          10.51089900     12.11658200     10.23431900
H           9.16358700     12.17169900      9.07206600
C          10.90982600     11.14094100      8.34205000
H          11.21983200     12.05430400      7.79450700
H          10.37830400     10.54814400      7.55350900
N           8.21426700     10.52964900     11.09197000
S          12.32630500     10.25784900      8.92360600
O          12.93176000     11.04634700     10.02052700
O          11.78524500      8.94891000      9.49278300
O          13.18032800     10.00763600      7.75149100
P          12.14656800      9.25330700     12.78183500
O          10.71204600      9.64333800     12.68447200
O          13.22978300     10.44232000     12.58681300
H          13.34073200     10.84183800     11.61546400
O          12.55785100      8.68433700     14.26044300
H          13.52468000      8.47647700     14.39205100
O          12.62020400      8.06945400     11.79083500
H          12.35550800      8.16722200     10.75494800
O           7.27191800      8.26215100      9.01010600
H           6.82345400      7.51127000      8.63718500
H           8.24186600      8.14520200      8.74342600
O           9.74908600      7.67129700      8.25352100
H          10.01160900      8.02612400      7.37247200
H          10.52470600      7.85012800      8.84247700
O          10.55066300      9.06986300      6.07685100
H          10.17060800      8.81929600      5.24438400
H          11.56811700      8.95826200      5.95398500
O          13.12949700      8.83624700      5.68778900
H          13.41093400      8.45037000      6.55113900
H          13.38926200      9.77851500      5.79992000
          46
 G =       -0.821729 Gcorr = 0.268030 a.u. Nimag =   0 Frame:     7 Step:     7 Geom:     7
C           7.96274000      9.13741800     11.67498400
H           7.77140200      8.32628000     10.94069100
H           7.11028600      9.18896300     12.36353700
H           8.86015900      8.83118100     12.26216300
C           9.32108000     10.27781100      9.96950500
H           8.91708000      9.74933200      9.07393600
H          10.08112000      9.56932600     10.40613800
C           8.52576700     11.48945700     12.01116600
H           8.48768500     12.50536000     11.59356100
H           7.84128500     11.43401500     12.87068700
H           9.55760900     11.33439600     12.41747500
C           6.93776300     10.84863400     10.26573900
H           6.10943400     11.01655100     10.97023400
H           7.08905700     11.76526900      9.67398200
H           6.62059800     10.04874000      9.56148400
C           9.99472200     11.59098100      9.55630400
H          10.54134200     12.04221300     10.41807100
H           9.24114400     12.33807100      9.24282000
C          10.96919500     11.34801500      8.40828900
H          11.28309600     12.30841100      7.96049300
H          10.48884700     10.79106000      7.58036200
N           8.19797800     10.45009300     10.98044500
S          12.45627500     10.45509600      8.93180700
O          13.00690100     11.21297600     10.07112400
O          11.91955300      9.11691400      9.36263200
O          13.29468100     10.38683900      7.72429700
P          12.13079100      9.28269000     12.87281900
O          10.72393500      9.70784400     12.84574500
O          13.21291000     10.42028300     12.70312100
H          13.17652000     10.78242000     11.70101200
O          12.47556100      8.66879000     14.30380000
H          13.47130300      8.39523800     14.28547500
O          12.49878000      8.10564500     11.87896200
H          12.27593800      8.41368800     10.88785800
O           7.37602100      7.84768300      8.95196600
H           6.95326700      7.07418100      8.59551300
H           8.32188800      7.76422600      8.66930200
O           9.93455500      7.65923400      8.13794100
H          10.01537800      8.09261500      7.27752500
H          10.68318300      8.03548200      8.65788800
O          10.21185100      9.13034800      5.75595900
H           9.84981000      8.81815100      4.93522500
H          11.18470600      9.19707400      5.59211700
O          12.87886100      9.25473600      5.32595200
H          13.11420000      9.78317500      6.13728300
H          13.34377100      8.43311600      5.46262800
          46
 G =       -0.819590 Gcorr = 0.269885 a.u. Nimag =   0 Frame:     8 Step:     8 Geom:     8
C           7.91877500      9.14100100     11.82717200
H           7.77075800      8.32676200     11.08511400
H           7.01814700      9.20088800     12.45159200
H           8.76921800      8.83409400     12.47339600
C           9.38223300     10.26053000     10.19331900
H           9.01623300      9.75454900      9.26884100
H          10.09805200      9.52857300     10.66265400
C           8.48782600     11.48616500     12.18609500
H           8.51065100     12.49947900     11.75937700
H           7.73731600     11.46130200     12.99018200
H           9.48154800     11.30700200     12.66506900
C           6.99290600     10.85535800     10.35420500
H           6.12809500     11.04033600     11.00760400
H           7.18936200     11.76155500      9.76010900
H           6.70661000     10.04789700      9.63998400
C          10.11220200     11.56074400      9.83766400
H          10.69813600     11.93011600     10.71306000
H           9.39220200     12.36229800      9.58585900
C          11.04708900     11.34143500      8.65245500
H          11.42521800     12.31020700      8.27833600
H          10.51188200     10.89147100      7.79393700
N           8.20617700     10.44820600     11.14052300
S          12.47290100     10.30140500      9.06326900
O          13.17179000     10.98304500     10.16759000
O          11.83903800      9.01181500      9.50960300
O          13.21805300     10.17904900      7.79950300
P          12.20976500      9.21703600     13.02963900
O          10.87522700      9.82805200     13.05026900
O          13.43519300     10.18248400     12.78849100
H          13.38397000     10.55377600     11.78967400
O          12.53002800      8.57707100     14.45529800
H          13.47749500      8.17028600     14.40066100
O          12.36440800      7.98148900     12.04717200
H          12.17060800      8.30140400     11.05750600
O           7.28992300      8.01446000      9.08245700
H           6.79894100      7.30409500      8.68482900
H           8.22897300      7.85628100      8.79762900
O           9.81026300      7.63063100      8.25822400
H           9.86920400      8.11983300      7.42515100
H          10.57504600      7.97446300      8.78051600
O           9.97141800      9.27102900      5.98333100
H           9.53181400      9.03511700      5.17511000
H          10.93203200      9.30113900      5.74667000
O          12.59367500      9.29325100      5.35037600
H          12.90854300      9.73186300      6.18880500
H          13.02107400      8.44097700      5.38169900
          46
 G =       -0.806125 Gcorr = 0.251294 a.u. Nimag =   0 Frame:     9 Step:     9 Geom:     9
C           7.60035500      8.58742100     11.14877400
H           7.28771900      8.24851200     10.13091000
H           6.73304500      8.48907600     11.81729600
H           8.38551900      7.89374500     11.50047400
C           9.32423900     10.03585900     10.16042200
H           8.99092000      9.67939400      9.14959500
H          10.07826900      9.28092500     10.52024800
C           8.48074200     10.45158100     12.49065600
H           8.99962900     11.42939400     12.50148200
H           7.61367600     10.49472200     13.15920900
H           9.24961500      9.77093600     12.94342500
C           7.02228800     10.90378400     10.54987700
H           6.14114700     10.92366100     11.20727200
H           7.38238200     11.93853500     10.41784300
H           6.68732500     10.53952700      9.54726300
C          10.00441900     11.40678400     10.04383700
H          10.61001400     11.60716000     10.96413300
H           9.25163400     12.22069000      9.99383800
C          10.87786900     11.46507200      8.79759200
H          11.14407700     12.51787700      8.57338300
H          10.28648100     11.14255900      7.90080800
N           8.11570200     10.01238000     11.09658200
S          12.33428600     10.47971400      8.94598300
O          13.22376400     11.11213400      9.93678600
O          11.87434000      9.11298800      9.47408600
O          12.87262400     10.30669800      7.58580500
P          12.47423200      9.61318800     12.77339000
O          11.14084200     10.26523000     12.71634400
O          13.78109200     10.51970800     12.45794800
H          13.85259400     10.93899700     11.49966300
O          12.85258100      9.03686200     14.26016300
H          13.78569700      8.70246700     14.37013600
O          12.62135200      8.29665800     11.84214800
H          12.41104600      8.41572500     10.79893700
O           7.02407600      9.00726900      8.22428900
H           6.48590900      8.53567700      7.60297100
H           7.89713400      9.20167900      7.74250200
O           9.32366500      9.46245900      7.00343700
H           9.95618700      8.63560200      7.28274100
H           9.24482800      9.39878700      6.06107900
O          10.86862400      7.54422200      7.60010300
H          11.29794700      7.86071100      8.45359000
H          11.60199100      7.66796700      6.90846200
O          12.62756000      8.56745700      5.95007400
H          12.26193600      9.47809800      5.95832700
H          13.42865100      8.67012400      6.50614000
          46
 G =       -0.809130 Gcorr = 0.251627 a.u. Nimag =   0 Frame:    10 Step:    10 Geom:    10
C           7.90096200      9.07599900     11.91278000
H           7.61287000      8.30482200     11.16470700
H           7.09833700      9.15556800     12.65634900
H           8.81934500      8.70983500     12.43999400
C           9.31796800     10.18576400     10.23596300
H           8.95859000      9.49064500      9.43042100
H          10.13682100      9.61080500     10.76868700
C           8.57919200     11.40611300     12.29533600
H           8.76017300     12.40561400     11.87846500
H           7.81983900     11.48628600     13.08617300
H           9.53242200     11.07221000     12.79658900
C           6.94260000     10.86675200     10.51532700
H           6.10192400     11.02443900     11.20676600
H           7.11997300     11.80175100      9.96172100
H           6.62272800     10.09591600      9.77060200
C           9.89185300     11.46736500      9.62518600
H          10.45093900     12.04610500     10.39662200
H           9.07907900     12.13162800      9.26541300
C          10.81949600     11.14810400      8.46013300
H          11.10875700     12.08497100      7.94169400
H          10.27712400     10.58030000      7.66075000
N           8.18690200     10.40248000     11.23741800
S          12.25672800     10.25881600      8.97793200
O          12.87970600     11.01367200     10.08864200
O          11.74090700      8.92492100      9.51154100
O          13.08570700     10.05813000      7.77872600
P          12.16803700      9.11512500     12.80063100
O          10.72791900      9.49271400     12.74685100
O          13.23549100     10.32125700     12.62513500
H          13.32193500     10.75616400     11.66642700
O          12.61604800      8.49926500     14.24953600
H          13.58783800      8.29960200     14.35453500
O          12.63217500      7.97182100     11.75869900
H          12.34560000      8.10384900     10.73266300
O           7.23281700      8.19948800      9.09240700
H           6.78576700      7.45706900      8.70113400
H           8.19803700      8.10573600      8.80025400
O           9.70003600      7.66887300      8.26365400
H           9.94388000      8.06449100      7.39434800
H          10.48307200      7.83213900      8.84699900
O          10.43241200      9.16143700      6.12333000
H          11.44918000      9.08164000      5.97579200
H          10.04098900      8.92150300      5.29270400
O          13.00603300      8.94871700      5.68258000
H          13.29332100      8.53573600      6.53103400
H          13.27849000      9.88438000      5.81737600
          46
 G =       -0.807157 Gcorr = 0.252228 a.u. Nimag =   0 Frame:    11 Step:    11 Geom:    11
C           7.89437600      9.02731600     11.77570500
H           7.56730500      8.36097400     10.94748600
H           7.12995100      9.00923300     12.56225200
H           8.83504900      8.59418700     12.20397800
C           9.20671500     10.33679200     10.16302200
H           8.74761500      9.79681800      9.29120500
H          10.03498000      9.66238500     10.53445900
C           8.63649100     11.28315500     12.41488700
H           8.80160600     12.32830500     12.12116500
H           7.93647600     11.26164300     13.26236200
H           9.61826500     10.88175100     12.79741100
C           6.87335000     10.99248400     10.69637200
H           6.08047300     11.05569000     11.45630600
H           7.02453100     11.99513100     10.26710000
H           6.50143200     10.33183700      9.87523900
C           9.79717600     11.67247600      9.70130600
H          10.44506500     12.10881200     10.49704900
H           8.99699300     12.41520600      9.50754800
C          10.61109900     11.47357400      8.42681700
H          10.83326900     12.45392200      7.96004900
H           9.99845200     10.94191200      7.65557200
N           8.15677800     10.43059100     11.26576000
S          12.10167700     10.57429100      8.73472200
O          12.72763000     11.13849300      9.94868800
O          11.65298000      9.13364600      9.03530600
O          12.89584300     10.60336100      7.50238200
P          12.20563600      8.91414600     12.37706600
O          10.77072300      9.30879100     12.44292100
O          13.28697800     10.12195900     12.33526100
H          13.32614800     10.69977400     11.45860200
O          12.70635600      8.08551400     13.69563300
H          13.67772700      7.85769400     13.72391800
O          12.60113900      7.93672200     11.15442800
H          12.25495300      8.21462300     10.17687600
O           7.06776400      8.47831200      8.87760500
H           6.48498000      7.86459300      8.44748000
H           7.91594300      8.47124400      8.33366000
O           9.41167000      8.73279500      7.59884800
H           9.67160200      8.21906200      6.79653300
H          10.17089600      8.54555200      8.22634000
O          11.39368300      7.56434600      6.75235600
H          11.98985000      7.95774500      6.06161700
H          11.83180800      7.76641900      7.59807200
O          13.19071900      9.14171100      5.59287900
H          12.72288800      9.99492600      5.61561200
H          13.81298100      9.22011700      6.34017200
          46
 G =       -0.809071 Gcorr = 0.251693 a.u. Nimag =   0 Frame:    12 Step:    12 Geom:    12
C           7.90349300      9.14367700     11.84926600
H           7.62057600      8.37123500     11.10059500
H           7.09322800      9.22878300     12.58388100
H           8.81464500      8.77550300     12.38765900
C           9.34384700     10.24303400     10.18550600
H           8.99274800      9.54343400      9.38013200
H          10.15594400      9.67042700     10.73099500
C           8.58577000     11.47257900     12.23205400
H           8.77769400     12.46946700     11.81365100
H           7.81666700     11.55981700     13.01255800
H           9.53098100     11.13592600     12.74646600
C           6.96769700     10.93310500     10.43510900
H           6.11941500     11.09494800     11.11622400
H           7.15435200     11.86630300      9.88148200
H           6.65436500     10.16141600      9.68847000
C           9.92561600     11.52037300      9.57325900