 Entering Gaussian System, Link 0=g16
 Initial command:
 /data0/home/software/g16/l1.exe "/data0/home/software/g16/scratch/Gau-3816680.inp" -scrdir="/data0/home/software/g16/scratch/"
 Default is to use a total of  22 processors:
                               22 via shared-memory
                                1 via Linda
 Entering Link 1 = /data0/home/software/g16/l1.exe PID=   3816681.
  
 Copyright (c) 1988,1990,1992,1993,1995,1998,2003,2009,2016,
            Gaussian, Inc.  All Rights Reserved.
  
 This is part of the Gaussian(R) 16 program.  It is based on
 the Gaussian(R) 09 system (copyright 2009, Gaussian, Inc.),
 the Gaussian(R) 03 system (copyright 2003, Gaussian, Inc.),
 the Gaussian(R) 98 system (copyright 1998, Gaussian, Inc.),
 the Gaussian(R) 94 system (copyright 1995, Gaussian, Inc.),
 the Gaussian 92(TM) system (copyright 1992, Gaussian, Inc.),
 the Gaussian 90(TM) system (copyright 1990, Gaussian, Inc.),
 the Gaussian 88(TM) system (copyright 1988, Gaussian, Inc.),
 the Gaussian 86(TM) system (copyright 1986, Carnegie Mellon
 University), and the Gaussian 82(TM) system (copyright 1983,
 Carnegie Mellon University). Gaussian is a federally registered
 trademark of Gaussian, Inc.
  
 This software contains proprietary and confidential information,
 including trade secrets, belonging to Gaussian, Inc.
  
 This software is provided under written license and may be
 used, copied, transmitted, or stored only in accord with that
 written license.
  
 The following legend is applicable only to US Government
 contracts under FAR:
  
                    RESTRICTED RIGHTS LEGEND
  
 Use, reproduction and disclosure by the US Government is
 subject to restrictions as set forth in subparagraphs (a)
 and (c) of the Commercial Computer Software - Restricted
 Rights clause in FAR 52.227-19.
  
 Gaussian, Inc.
 340 Quinnipiac St., Bldg. 40, Wallingford CT 06492
  
  
 ---------------------------------------------------------------
 Warning -- This program may not be used in any manner that
 competes with the business of Gaussian, Inc. or will provide
 assistance to any competitor of Gaussian, Inc.  The licensee
 of this program is prohibited from giving any competitor of
 Gaussian, Inc. access to this program.  By using this program,
 the user acknowledges that Gaussian, Inc. is engaged in the
 business of creating and licensing software in the field of
 computational chemistry and represents and warrants to the
 licensee that it is not a competitor of Gaussian, Inc. and that
 it will not use this program in any manner prohibited above.
 ---------------------------------------------------------------
  

 Cite this work as:
 Gaussian 16, Revision A.03,
 M. J. Frisch, G. W. Trucks, H. B. Schlegel, G. E. Scuseria, 
 M. A. Robb, J. R. Cheeseman, G. Scalmani, V. Barone, 
 G. A. Petersson, H. Nakatsuji, X. Li, M. Caricato, A. V. Marenich, 
 J. Bloino, B. G. Janesko, R. Gomperts, B. Mennucci, H. P. Hratchian, 
 J. V. Ortiz, A. F. Izmaylov, J. L. Sonnenberg, D. Williams-Young, 
 F. Ding, F. Lipparini, F. Egidi, J. Goings, B. Peng, A. Petrone, 
 T. Henderson, D. Ranasinghe, V. G. Zakrzewski, J. Gao, N. Rega, 
 G. Zheng, W. Liang, M. Hada, M. Ehara, K. Toyota, R. Fukuda, 
 J. Hasegawa, M. Ishida, T. Nakajima, Y. Honda, O. Kitao, H. Nakai, 
 T. Vreven, K. Throssell, J. A. Montgomery, Jr., J. E. Peralta, 
 F. Ogliaro, M. J. Bearpark, J. J. Heyd, E. N. Brothers, K. N. Kudin, 
 V. N. Staroverov, T. A. Keith, R. Kobayashi, J. Normand, 
 K. Raghavachari, A. P. Rendell, J. C. Burant, S. S. Iyengar, 
 J. Tomasi, M. Cossi, J. M. Millam, M. Klene, C. Adamo, R. Cammi, 
 J. W. Ochterski, R. L. Martin, K. Morokuma, O. Farkas, 
 J. B. Foresman, and D. J. Fox, Gaussian, Inc., Wallingford CT, 2016.
 
 ******************************************
 Gaussian 16:  ES64L-G16RevA.03 25-Dec-2016
                17-Dec-2022 
 ******************************************
 %nproc=24
 Will use up to   24 processors via shared memory.
 %mem=50GB
 ---------------------------------------------------
 #p M062X/6-311+G(2d,p) nosymm em=GD3 counterpoise=3
 ---------------------------------------------------
 1/38=1,62=3,172=1/1;
 2/12=2,15=1,17=6,18=5,40=1/2;
 1/38=1,53=2,62=3,63=1/22;
 3/5=4,6=6,7=112,11=2,25=1,30=1,74=-55,124=31/1,2,3;
 4//1;
 5/5=2,38=5/2;
 6/7=2,8=2,9=2,10=2,28=1/1;
 1/53=2,62=3,63=1/22;
 3/5=7,6=11,7=112,11=2,25=1,30=1,74=-55,82=7,124=31/1,2,3;
 4//1;
 5/5=2,38=5/2;
 6/7=2,8=2,9=2,10=2,28=1/1;
 1/53=2,62=3,63=1/22(-4);
 99/5=1,9=1/99;
 Leave Link    1 at Sat Dec 17 22:52:58 2022, MaxMem=  6710886400 cpu:               0.7 elap:               0.0
 (Enter /data0/home/software/g16/l101.exe)
 -------------------
 Title Card Required
 -------------------
 Symbolic Z-matrix:
 Charge =  0 Multiplicity = 1 in supermolecule
 Charge =  0 Multiplicity = 1 in fragment      1.
 Charge =  0 Multiplicity = 1 in fragment      2.
 Charge =  0 Multiplicity = 1 in fragment      3.
 P                     9.54794   16.89918   8.24962    
 O                     9.6077    16.01979   9.42286    
 O                     8.09883   17.38428   7.81141    
 H                     7.4687    17.40694   8.65348    
 O                     10.39019   18.22559   8.50029    
 H                     10.37003   18.78139   7.63218    
 O                     10.14559   16.37055   6.87947    
 H                     9.67948   15.45716   6.64839    
 O                     8.82986   13.8878   6.34496    
 H                     8.83685   13.48119   7.233      
 H                     7.90812   14.06744   6.1682     
 O                     8.70397   13.15834   9.05054    
 H                     7.81421   13.2298   9.40208    
 H                     9.12939   13.99577   9.29235    
 
 ITRead=  0  0  0  0  0  0  0  0  0  0  0  0  0  0
 MicOpt= -1 -1 -1 -1 -1 -1 -1 -1 -1 -1 -1 -1 -1 -1
 NAtoms=     14 NQM=       14 NQMF=       0 NMMI=      0 NMMIF=      0
                NMic=       0 NMicF=      0.
                    Isotopes and Nuclear Properties:
 (Nuclear quadrupole moments (NQMom) in fm**2, nuclear magnetic moments (NMagM)
  in nuclear magnetons)

  Atom         1           2           3           4           5           6           7           8           9          10
 IAtWgt=          31          16          16           1          16           1          16           1          16           1
 AtmWgt=  30.9737634  15.9949146  15.9949146   1.0078250  15.9949146   1.0078250  15.9949146   1.0078250  15.9949146   1.0078250
 NucSpn=           1           0           0           1           0           1           0           1           0           1
 AtZEff=  -0.0000000  -0.0000000  -0.0000000  -0.0000000  -0.0000000  -0.0000000  -0.0000000  -0.0000000  -0.0000000  -0.0000000
 NQMom=    0.0000000   0.0000000   0.0000000   0.0000000   0.0000000   0.0000000   0.0000000   0.0000000   0.0000000   0.0000000
 NMagM=    1.1316000   0.0000000   0.0000000   2.7928460   0.0000000   2.7928460   0.0000000   2.7928460   0.0000000   2.7928460
 AtZNuc=  15.0000000   8.0000000   8.0000000   1.0000000   8.0000000   1.0000000   8.0000000   1.0000000   8.0000000   1.0000000

  Atom        11          12          13          14
 IAtWgt=           1          16           1           1
 AtmWgt=   1.0078250  15.9949146   1.0078250   1.0078250
 NucSpn=           1           0           1           1
 AtZEff=  -0.0000000  -0.0000000  -0.0000000  -0.0000000
 NQMom=    0.0000000   0.0000000   0.0000000   0.0000000
 NMagM=    2.7928460   0.0000000   2.7928460   2.7928460
 AtZNuc=   1.0000000   8.0000000   1.0000000   1.0000000
 Leave Link  101 at Sat Dec 17 22:52:59 2022, MaxMem=  6710886400 cpu:               2.0 elap:               0.1
 (Enter /data0/home/software/g16/l202.exe)
                          Input orientation:                          
 ---------------------------------------------------------------------
 Center     Atomic      Atomic             Coordinates (Angstroms)
 Number     Number       Type             X           Y           Z
 ---------------------------------------------------------------------
      1         15           0        9.547939   16.899181    8.249616
      2          8           0        9.607698   16.019786    9.422860
      3          8           0        8.098830   17.384281    7.811414
      4          1           0        7.468700   17.406937    8.653482
      5          8           0       10.390186   18.225593    8.500291
      6          1           0       10.370026   18.781395    7.632182
      7          8           0       10.145594   16.370554    6.879466
      8          1           0        9.679480   15.457157    6.648388
      9          8           0        8.829859   13.887798    6.344960
     10          1           0        8.836853   13.481191    7.232997
     11          1           0        7.908120   14.067438    6.168199
     12          8           0        8.703970   13.158344    9.050538
     13          1           0        7.814211   13.229797    9.402076
     14          1           0        9.129393   13.995769    9.292346
 ---------------------------------------------------------------------
                    Distance matrix (angstroms):
                    1          2          3          4          5
     1  P    0.000000
     2  O    1.467450   0.000000
     3  O    1.589736   2.595243   0.000000
     4  H    2.178109   2.662976   1.051977   0.000000
     5  O    1.591096   2.515751   2.536271   3.037885   0.000000
     6  H    2.144710   3.378484   2.672524   3.368958   1.030988
     7  O    1.585544   2.623209   2.466863   3.374461   2.475494
     8  H    2.158858   2.831854   2.750435   3.565052   3.405714
     9  O    3.634801   3.824118   3.861384   4.423389   5.088864
    10  H    3.636181   3.440082   4.014144   4.393302   5.150556
    11  H    3.878153   4.158491   3.706477   4.185926   5.374901
    12  O    3.917604   3.023772   4.445241   4.442307   5.368716
    13  H    4.218810   3.316786   4.457684   4.257731   5.692701
    14  H    3.113241   2.083856   3.838910   3.847352   4.484235
                    6          7          8          9         10
     6  H    0.000000
     7  O    2.535568   0.000000
     8  H    3.534864   1.051168   0.000000
     9  O    5.289267   2.860233   1.810197   0.000000
    10  H    5.531919   3.191584   2.226259   0.976723   0.000000
    11  H    5.515942   3.288850   2.302090   0.955572   1.529714
    12  O    6.033753   4.136439   3.465038   2.805014   1.850768
    13  H    6.362779   4.654381   4.002894   3.287927   2.411203
    14  H    5.215125   3.534722   3.070629   2.964534   2.142729
                   11         12         13         14
    11  H    0.000000
    12  O    3.125333   0.000000
    13  H    3.341919   0.959352   0.000000
    14  H    3.355136   0.969916   1.525928   0.000000
 Symmetry turned off by external request.
 Stoichiometry    H7O6P
 Framework group  C1[X(H7O6P)]
 Deg. of freedom    36
 Full point group                 C1      NOp   1
 Rotational constants (GHZ):           2.7317918           1.1319683           0.9760916
 Leave Link  202 at Sat Dec 17 22:52:59 2022, MaxMem=  6710886400 cpu:               0.1 elap:               0.0
 (Enter /data0/home/software/g16/l122.exe)
 Counterpoise: doing full-system calculation.
 Leave Link  122 at Sat Dec 17 22:52:59 2022, MaxMem=  6710886400 cpu:               0.0 elap:               0.0
 (Enter /data0/home/software/g16/l301.exe)
 Standard basis: 6-311+G(2d,p) (5D, 7F)
 Ernie: Thresh=  0.10000D-02 Tol=  0.10000D-05 Strict=F.
   239 basis functions,   364 primitive gaussians,   253 cartesian basis functions
    35 alpha electrons       35 beta electrons
       nuclear repulsion energy       455.7012273999 Hartrees.
 IExCor= 4336 DFT=T Ex+Corr=M062X ExCW=0 ScaHFX=  0.540000
 ScaDFX=  1.000000  1.000000  1.000000  1.000000 ScalE2=  1.000000  1.000000
 IRadAn=      5 IRanWt=     -1 IRanGd=            0 ICorTp=0 IEmpDi=131
 NAtoms=   14 NActive=   14 NUniq=   14 SFac= 1.00D+00 NAtFMM=   60 NAOKFM=F Big=F
 Integral buffers will be    131072 words long.
 Raffenetti 2 integral format.
 Two-electron integral symmetry is turned off.
 R6Disp:  Grimme-D3 Dispersion energy=       -0.0003649196 Hartrees.
 Nuclear repulsion after empirical dispersion term =      455.7008624804 Hartrees.
 Leave Link  301 at Sat Dec 17 22:52:59 2022, MaxMem=  6710886400 cpu:               1.1 elap:               0.1
 (Enter /data0/home/software/g16/l302.exe)
 NPDir=0 NMtPBC=     1 NCelOv=     1 NCel=       1 NClECP=     1 NCelD=      1
         NCelK=      1 NCelE2=     1 NClLst=     1 CellRange=     0.0.
 One-electron integrals computed using PRISM.
 NBasis=   239 RedAO= T EigKep=  4.38D-04  NBF=   239
 NBsUse=   239 1.00D-06 EigRej= -1.00D+00 NBFU=   239
 Precomputing XC quadrature grid using
 IXCGrd= 4 IRadAn=           5 IRanWt=          -1 IRanGd=           0 AccXCQ= 0.00D+00.
 Generated NRdTot=       0 NPtTot=           0 NUsed=           0 NTot=          32
 NSgBfM=   253   253   253   253   253 MxSgAt=    14 MxSgA2=    14.
 Leave Link  302 at Sat Dec 17 22:52:59 2022, MaxMem=  6710886400 cpu:               3.8 elap:               0.2
 (Enter /data0/home/software/g16/l303.exe)
 DipDrv:  MaxL=1.
 Leave Link  303 at Sat Dec 17 22:52:59 2022, MaxMem=  6710886400 cpu:               0.6 elap:               0.0
 (Enter /data0/home/software/g16/l401.exe)
 ExpMin= 3.48D-02 ExpMax= 7.75D+04 ExpMxC= 2.65D+03 IAcc=3 IRadAn=         5 AccDes= 0.00D+00
 Harris functional with IExCor= 1009 and IRadAn=       5 diagonalized for initial guess.
 HarFok:  IExCor= 1009 AccDes= 0.00D+00 IRadAn=         5 IDoV= 1 UseB2=F ITyADJ=14
 ICtDFT=  3500011 ScaDFX=  1.000000  1.000000  1.000000  1.000000
 FoFCou: FMM=F IPFlag=           0 FMFlag=      100000 FMFlg1=           0
         NFxFlg=           0 DoJE=T BraDBF=F KetDBF=T FulRan=T
         wScrn=  0.000000 ICntrl=       500 IOpCl=  0 I1Cent=   200000004 NGrid=           0
         NMat0=    1 NMatS0=      1 NMatT0=    0 NMatD0=    1 NMtDS0=    0 NMtDT0=    0
 Symmetry not used in FoFCou.
 Harris En= -796.784038994573    
 JPrj=0 DoOrth=F DoCkMO=F.
 Leave Link  401 at Sat Dec 17 22:52:59 2022, MaxMem=  6710886400 cpu:              10.6 elap:               0.5
 (Enter /data0/home/software/g16/l502.exe)
 Two-electron integral symmetry not used.
 Closed shell SCF:
 Using DIIS extrapolation, IDIIS=  1040.
 NGot=  6710886400 LenX=  6710750439 LenY=  6710685989
 Requested convergence on RMS density matrix=1.00D-08 within 128 cycles.
 Requested convergence on MAX density matrix=1.00D-06.
 Requested convergence on             energy=1.00D-06.
 No special actions if energy rises.
 Fock matrices will be formed incrementally for  20 cycles.

 Cycle   1  Pass 1  IDiag  1:
 FoFJK:  IHMeth= 1 ICntrl=       0 DoSepK=F KAlg= 0 I1Cent=           0 FoldK=F
 IRaf= 930000000 NMat=       1 IRICut=       1 DoRegI=T DoRafI=F ISym2E= 0 IDoP0=0 IntGTp=1.
 FoFCou: FMM=F IPFlag=           0 FMFlag=      100000 FMFlg1=           0
         NFxFlg=           0 DoJE=F BraDBF=F KetDBF=F FulRan=T
         wScrn=  0.000000 ICntrl=         0 IOpCl=  0 I1Cent=           0 NGrid=           0
         NMat0=    1 NMatS0=      1 NMatT0=    0 NMatD0=    1 NMtDS0=    0 NMtDT0=    0
 Symmetry not used in FoFCou.
 E= -796.644650517622    
 DIIS: error= 3.93D-02 at cycle   1 NSaved=   1.
 NSaved= 1 IEnMin= 1 EnMin= -796.644650517622     IErMin= 1 ErrMin= 3.93D-02
 ErrMax= 3.93D-02  0.00D+00 EMaxC= 1.00D-01 BMatC= 7.00D-01 BMatP= 7.00D-01
 IDIUse=3 WtCom= 6.07D-01 WtEn= 3.93D-01
 Coeff-Com:  0.100D+01
 Coeff-En:   0.100D+01
 Coeff:      0.100D+01
 Gap=     0.324 Goal=   None    Shift=    0.000
 GapD=    0.324 DampG=1.000 DampE=0.500 DampFc=0.5000 IDamp=-1.
 Damping current iteration by 5.00D-01
 RMSDP=6.01D-03 MaxDP=1.93D-01              OVMax= 2.10D-01

 Cycle   2  Pass 1  IDiag  1:
 RMSU=  3.01D-03    CP:  1.01D+00
 E= -796.816036661895     Delta-E=       -0.171386144273 Rises=F Damp=T
 DIIS: error= 8.69D-03 at cycle   2 NSaved=   2.
 NSaved= 2 IEnMin= 2 EnMin= -796.816036661895     IErMin= 2 ErrMin= 8.69D-03
 ErrMax= 8.69D-03  0.00D+00 EMaxC= 1.00D-01 BMatC= 3.04D-02 BMatP= 7.00D-01
 IDIUse=3 WtCom= 9.13D-01 WtEn= 8.69D-02
 Coeff-Com:  0.458D-01 0.954D+00
 Coeff-En:   0.151D+00 0.849D+00
 Coeff:      0.549D-01 0.945D+00
 Gap=     0.376 Goal=   None    Shift=    0.000
 RMSDP=1.18D-03 MaxDP=4.97D-02 DE=-1.71D-01 OVMax= 1.17D-01

 Cycle   3  Pass 1  IDiag  1:
 RMSU=  8.92D-04    CP:  9.98D-01  7.46D-01
 E= -797.033510775154     Delta-E=       -0.217474113259 Rises=F Damp=F
 DIIS: error= 4.52D-03 at cycle   3 NSaved=   3.
 NSaved= 3 IEnMin= 3 EnMin= -797.033510775154     IErMin= 3 ErrMin= 4.52D-03
 ErrMax= 4.52D-03  0.00D+00 EMaxC= 1.00D-01 BMatC= 7.01D-03 BMatP= 3.04D-02
 IDIUse=3 WtCom= 9.55D-01 WtEn= 4.52D-02
 Coeff-Com: -0.256D-01 0.253D+00 0.772D+00
 Coeff-En:   0.000D+00 0.000D+00 0.100D+01
 Coeff:     -0.244D-01 0.242D+00 0.782D+00
 Gap=     0.366 Goal=   None    Shift=    0.000
 RMSDP=4.42D-04 MaxDP=1.50D-02 DE=-2.17D-01 OVMax= 3.19D-02

 Cycle   4  Pass 1  IDiag  1:
 RMSU=  3.86D-04    CP:  9.98D-01  8.05D-01  8.61D-01
 E= -797.035526412067     Delta-E=       -0.002015636913 Rises=F Damp=F
 DIIS: error= 3.36D-03 at cycle   4 NSaved=   4.
 NSaved= 4 IEnMin= 4 EnMin= -797.035526412067     IErMin= 4 ErrMin= 3.36D-03
 ErrMax= 3.36D-03  0.00D+00 EMaxC= 1.00D-01 BMatC= 4.31D-03 BMatP= 7.01D-03
 IDIUse=3 WtCom= 9.66D-01 WtEn= 3.36D-02
 Coeff-Com: -0.202D-01 0.444D-01 0.469D+00 0.507D+00
 Coeff-En:   0.000D+00 0.000D+00 0.381D+00 0.619D+00
 Coeff:     -0.195D-01 0.429D-01 0.466D+00 0.511D+00
 Gap=     0.373 Goal=   None    Shift=    0.000
 RMSDP=2.05D-04 MaxDP=7.30D-03 DE=-2.02D-03 OVMax= 1.31D-02

 Cycle   5  Pass 1  IDiag  1:
 RMSU=  5.02D-05    CP:  9.98D-01  7.88D-01  9.57D-01  5.54D-01
 E= -797.038419091354     Delta-E=       -0.002892679287 Rises=F Damp=F
 DIIS: error= 1.68D-04 at cycle   5 NSaved=   5.
 NSaved= 5 IEnMin= 5 EnMin= -797.038419091354     IErMin= 5 ErrMin= 1.68D-04
 ErrMax= 1.68D-04  0.00D+00 EMaxC= 1.00D-01 BMatC= 1.83D-05 BMatP= 4.31D-03
 IDIUse=3 WtCom= 9.98D-01 WtEn= 1.68D-03
 Coeff-Com: -0.290D-02 0.251D-02 0.877D-01 0.124D+00 0.789D+00
 Coeff-En:   0.000D+00 0.000D+00 0.000D+00 0.000D+00 0.100D+01
 Coeff:     -0.290D-02 0.250D-02 0.875D-01 0.124D+00 0.789D+00
 Gap=     0.370 Goal=   None    Shift=    0.000
 RMSDP=2.10D-05 MaxDP=9.70D-04 DE=-2.89D-03 OVMax= 7.85D-04

 Cycle   6  Pass 1  IDiag  1:
 RMSU=  1.71D-05    CP:  9.97D-01  7.86D-01  9.58D-01  5.77D-01  9.08D-01
 E= -797.038431758707     Delta-E=       -0.000012667353 Rises=F Damp=F
 DIIS: error= 5.07D-05 at cycle   6 NSaved=   6.
 NSaved= 6 IEnMin= 6 EnMin= -797.038431758707     IErMin= 6 ErrMin= 5.07D-05
 ErrMax= 5.07D-05  0.00D+00 EMaxC= 1.00D-01 BMatC= 1.56D-06 BMatP= 1.83D-05
 IDIUse=1 WtCom= 1.00D+00 WtEn= 0.00D+00
 Coeff-Com: -0.854D-04-0.103D-02 0.775D-02 0.170D-01 0.248D+00 0.729D+00
 Coeff:     -0.854D-04-0.103D-02 0.775D-02 0.170D-01 0.248D+00 0.729D+00
 Gap=     0.371 Goal=   None    Shift=    0.000
 RMSDP=7.04D-06 MaxDP=2.70D-04 DE=-1.27D-05 OVMax= 2.25D-04

 Cycle   7  Pass 1  IDiag  1:
 RMSU=  3.23D-06    CP:  9.97D-01  7.85D-01  9.59D-01  5.79D-01  9.99D-01
                    CP:  8.95D-01
 E= -797.038432933576     Delta-E=       -0.000001174869 Rises=F Damp=F
 DIIS: error= 2.46D-05 at cycle   7 NSaved=   7.
 NSaved= 7 IEnMin= 7 EnMin= -797.038432933576     IErMin= 7 ErrMin= 2.46D-05
 ErrMax= 2.46D-05  0.00D+00 EMaxC= 1.00D-01 BMatC= 1.66D-07 BMatP= 1.56D-06
 IDIUse=1 WtCom= 1.00D+00 WtEn= 0.00D+00
 Coeff-Com:  0.331D-03-0.602D-03-0.916D-02-0.107D-01-0.146D-01 0.215D+00
 Coeff-Com:  0.820D+00
 Coeff:      0.331D-03-0.602D-03-0.916D-02-0.107D-01-0.146D-01 0.215D+00
 Coeff:      0.820D+00
 Gap=     0.371 Goal=   None    Shift=    0.000
 RMSDP=2.69D-06 MaxDP=1.14D-04 DE=-1.17D-06 OVMax= 1.05D-04

 Cycle   8  Pass 1  IDiag  1:
 RMSU=  1.71D-06    CP:  9.97D-01  7.84D-01  9.59D-01  5.80D-01  1.02D+00
                    CP:  9.70D-01  9.74D-01
 E= -797.038433049542     Delta-E=       -0.000000115965 Rises=F Damp=F
 DIIS: error= 1.03D-05 at cycle   8 NSaved=   8.
 NSaved= 8 IEnMin= 8 EnMin= -797.038433049542     IErMin= 8 ErrMin= 1.03D-05
 ErrMax= 1.03D-05  0.00D+00 EMaxC= 1.00D-01 BMatC= 3.98D-08 BMatP= 1.66D-07
 IDIUse=1 WtCom= 1.00D+00 WtEn= 0.00D+00
 Coeff-Com:  0.153D-03-0.209D-03-0.479D-02-0.593D-02-0.194D-01 0.537D-01
 Coeff-Com:  0.399D+00 0.577D+00
 Coeff:      0.153D-03-0.209D-03-0.479D-02-0.593D-02-0.194D-01 0.537D-01
 Coeff:      0.399D+00 0.577D+00
 Gap=     0.371 Goal=   None    Shift=    0.000
 RMSDP=6.58D-07 MaxDP=1.93D-05 DE=-1.16D-07 OVMax= 2.93D-05

 Cycle   9  Pass 1  IDiag  1:
 RMSU=  4.04D-07    CP:  9.97D-01  7.84D-01  9.59D-01  5.80D-01  1.02D+00
                    CP:  9.80D-01  1.08D+00  8.43D-01
 E= -797.038433077503     Delta-E=       -0.000000027961 Rises=F Damp=F
 DIIS: error= 1.21D-06 at cycle   9 NSaved=   9.
 NSaved= 9 IEnMin= 9 EnMin= -797.038433077503     IErMin= 9 ErrMin= 1.21D-06
 ErrMax= 1.21D-06  0.00D+00 EMaxC= 1.00D-01 BMatC= 8.27D-10 BMatP= 3.98D-08
 IDIUse=1 WtCom= 1.00D+00 WtEn= 0.00D+00
 Coeff-Com: -0.259D-04 0.466D-04 0.413D-03 0.495D-03-0.530D-03-0.167D-01
 Coeff-Com: -0.417D-01 0.549D-01 0.100D+01
 Coeff:     -0.259D-04 0.466D-04 0.413D-03 0.495D-03-0.530D-03-0.167D-01
 Coeff:     -0.417D-01 0.549D-01 0.100D+01
 Gap=     0.371 Goal=   None    Shift=    0.000
 RMSDP=2.51D-07 MaxDP=7.81D-06 DE=-2.80D-08 OVMax= 8.18D-06

 Cycle  10  Pass 1  IDiag  1:
 RMSU=  1.16D-07    CP:  9.97D-01  7.84D-01  9.59D-01  5.80D-01  1.02D+00
                    CP:  9.82D-01  1.11D+00  9.42D-01  1.06D+00
 E= -797.038433078498     Delta-E=       -0.000000000995 Rises=F Damp=F
 DIIS: error= 6.72D-07 at cycle  10 NSaved=  10.
 NSaved=10 IEnMin=10 EnMin= -797.038433078498     IErMin=10 ErrMin= 6.72D-07
 ErrMax= 6.72D-07  0.00D+00 EMaxC= 1.00D-01 BMatC= 2.14D-10 BMatP= 8.27D-10
 IDIUse=1 WtCom= 1.00D+00 WtEn= 0.00D+00
 Coeff-Com: -0.185D-04 0.312D-04 0.408D-03 0.485D-03 0.442D-03-0.107D-01
 Coeff-Com: -0.395D-01-0.337D-02 0.476D+00 0.577D+00
 Coeff:     -0.185D-04 0.312D-04 0.408D-03 0.485D-03 0.442D-03-0.107D-01
 Coeff:     -0.395D-01-0.337D-02 0.476D+00 0.577D+00
 Gap=     0.371 Goal=   None    Shift=    0.000
 RMSDP=6.16D-08 MaxDP=2.06D-06 DE=-9.95D-10 OVMax= 3.39D-06

 Cycle  11  Pass 1  IDiag  1:
 RMSU=  3.82D-08    CP:  9.97D-01  7.84D-01  9.59D-01  5.80D-01  1.02D+00
                    CP:  9.82D-01  1.11D+00  9.55D-01  1.14D+00  8.84D-01
 E= -797.038433078645     Delta-E=       -0.000000000147 Rises=F Damp=F
 DIIS: error= 1.59D-07 at cycle  11 NSaved=  11.
 NSaved=11 IEnMin=11 EnMin= -797.038433078645     IErMin=11 ErrMin= 1.59D-07
 ErrMax= 1.59D-07  0.00D+00 EMaxC= 1.00D-01 BMatC= 1.28D-11 BMatP= 2.14D-10
 IDIUse=1 WtCom= 1.00D+00 WtEn= 0.00D+00
 Coeff-Com:  0.282D-06-0.617D-06 0.443D-04 0.478D-04 0.266D-03-0.331D-05
 Coeff-Com: -0.458D-02-0.121D-01-0.431D-01 0.157D+00 0.902D+00
 Coeff:      0.282D-06-0.617D-06 0.443D-04 0.478D-04 0.266D-03-0.331D-05
 Coeff:     -0.458D-02-0.121D-01-0.431D-01 0.157D+00 0.902D+00
 Gap=     0.371 Goal=   None    Shift=    0.000
 RMSDP=2.13D-08 MaxDP=4.78D-07 DE=-1.47D-10 OVMax= 9.37D-07

 Cycle  12  Pass 1  IDiag  1:
 RMSU=  1.10D-08    CP:  9.97D-01  7.84D-01  9.59D-01  5.80D-01  1.02D+00
                    CP:  9.82D-01  1.11D+00  9.60D-01  1.15D+00  9.95D-01
                    CP:  1.04D+00
 E= -797.038433078685     Delta-E=       -0.000000000040 Rises=F Damp=F
 DIIS: error= 3.14D-08 at cycle  12 NSaved=  12.
 NSaved=12 IEnMin=12 EnMin= -797.038433078685     IErMin=12 ErrMin= 3.14D-08
 ErrMax= 3.14D-08  0.00D+00 EMaxC= 1.00D-01 BMatC= 3.43D-13 BMatP= 1.28D-11
 IDIUse=1 WtCom= 1.00D+00 WtEn= 0.00D+00
 Coeff-Com:  0.955D-06-0.163D-05-0.958D-05-0.128D-04 0.228D-04 0.476D-03
 Coeff-Com:  0.118D-02-0.151D-02-0.297D-01-0.414D-03 0.152D+00 0.878D+00
 Coeff:      0.955D-06-0.163D-05-0.958D-05-0.128D-04 0.228D-04 0.476D-03
 Coeff:      0.118D-02-0.151D-02-0.297D-01-0.414D-03 0.152D+00 0.878D+00
 Gap=     0.371 Goal=   None    Shift=    0.000
 RMSDP=4.40D-09 MaxDP=8.86D-08 DE=-4.00D-11 OVMax= 1.78D-07

 SCF Done:  E(RM062X) =  -797.038433079     A.U. after   12 cycles
            NFock= 12  Conv=0.44D-08     -V/T= 2.0026
 KE= 7.949583562058D+02 PE=-2.800610046378D+03 EE= 7.529123946134D+02
 Leave Link  502 at Sat Dec 17 22:53:11 2022, MaxMem=  6710886400 cpu:             283.2 elap:              11.9
 (Enter /data0/home/software/g16/l601.exe)
 Copying SCF densities to generalized density rwf, IOpCl= 0 IROHF=0.

 **********************************************************************

            Population analysis using the SCF density.

 **********************************************************************

 Alpha  occ. eigenvalues --  -78.16960 -19.68714 -19.67406 -19.65915 -19.64292
 Alpha  occ. eigenvalues --  -19.63855 -19.60095  -6.97702  -5.09607  -5.09572
 Alpha  occ. eigenvalues --   -5.09438  -1.23781  -1.16589  -1.16005  -1.15003
 Alpha  occ. eigenvalues --   -1.14404  -1.10296  -0.72248  -0.65291  -0.63353
 Alpha  occ. eigenvalues --   -0.62858  -0.61801  -0.56468  -0.55025  -0.51737
 Alpha  occ. eigenvalues --   -0.50421  -0.49043  -0.47779  -0.47553  -0.45677
 Alpha  occ. eigenvalues --   -0.43016  -0.42251  -0.41242  -0.39680  -0.39035
 Alpha virt. eigenvalues --   -0.01945   0.00943   0.02607   0.04165   0.07313
 Alpha virt. eigenvalues --    0.09059   0.11474   0.12130   0.12987   0.13417
 Alpha virt. eigenvalues --    0.13934   0.15352   0.15844   0.16995   0.17228
 Alpha virt. eigenvalues --    0.18497   0.19079   0.20010   0.20651   0.21085
 Alpha virt. eigenvalues --    0.22488   0.22893   0.23623   0.23929   0.25169
 Alpha virt. eigenvalues --    0.26554   0.27000   0.28089   0.28771   0.29176
 Alpha virt. eigenvalues --    0.29788   0.31091   0.31472   0.33771   0.33946
 Alpha virt. eigenvalues --    0.36689   0.37081   0.38520   0.40709   0.42615
 Alpha virt. eigenvalues --    0.44688   0.46271   0.48503   0.50630   0.53215
 Alpha virt. eigenvalues --    0.55345   0.56183   0.58552   0.61342   0.64726
 Alpha virt. eigenvalues --    0.65747   0.75665   0.77932   0.78672   0.85421
 Alpha virt. eigenvalues --    0.97141   0.97808   1.01010   1.01504   1.02092
 Alpha virt. eigenvalues --    1.03290   1.04674   1.07290   1.08693   1.09502
 Alpha virt. eigenvalues --    1.10423   1.12946   1.13732   1.16071   1.17186
 Alpha virt. eigenvalues --    1.18362   1.19470   1.20334   1.22056   1.23720
 Alpha virt. eigenvalues --    1.24175   1.25527   1.26966   1.27968   1.29767
 Alpha virt. eigenvalues --    1.34081   1.34802   1.37296   1.39763   1.42832
 Alpha virt. eigenvalues --    1.43383   1.45913   1.48306   1.49433   1.51964
 Alpha virt. eigenvalues --    1.57475   1.60720   1.61503   1.64559   1.64998
 Alpha virt. eigenvalues --    1.66400   1.67190   1.71370   1.73123   1.74223
 Alpha virt. eigenvalues --    1.76076   1.76809   1.79716   1.83257   1.83937
 Alpha virt. eigenvalues --    1.86704   1.90296   1.93901   1.96602   1.99520
 Alpha virt. eigenvalues --    2.02645   2.03428   2.05124   2.06995   2.09754
 Alpha virt. eigenvalues --    2.11813   2.13793   2.15789   2.17662   2.22905
 Alpha virt. eigenvalues --    2.23519   2.29247   2.32098   2.37632   2.41268
 Alpha virt. eigenvalues --    2.42916   2.48758   2.52142   2.55141   2.57739
 Alpha virt. eigenvalues --    2.60135   2.60241   2.63176   2.63580   2.66467
 Alpha virt. eigenvalues --    2.74807   2.78512   2.83873   2.84164   2.90322
 Alpha virt. eigenvalues --    2.94063   2.94839   3.01326   3.08197   3.10327
 Alpha virt. eigenvalues --    5.03372   5.06583   5.08055   5.09407   5.10106
 Alpha virt. eigenvalues --    5.12374   5.14363   5.16848   5.21600   5.25207
 Alpha virt. eigenvalues --    5.35008   5.48253   5.51659   5.52432   5.53946
 Alpha virt. eigenvalues --    5.58676   5.93490   5.94830   6.72116   6.74253
 Alpha virt. eigenvalues --    6.76334   6.77385   6.78045   6.78545   6.79468
 Alpha virt. eigenvalues --    6.80065   6.81786   6.82480   6.83410   6.86180
 Alpha virt. eigenvalues --    6.89534   6.90586   6.90777   6.92128   6.96035
 Alpha virt. eigenvalues --    6.96571   6.97874   6.99092   7.03321   7.05662
 Alpha virt. eigenvalues --    7.11177   7.12295   7.14686   7.22287   7.27188
 Alpha virt. eigenvalues --    7.29472   7.34709   7.40331   7.65178  14.23009
 Alpha virt. eigenvalues --   14.25136  14.35703  49.98694  49.99722  50.01473
 Alpha virt. eigenvalues --   50.02714  50.04339  50.08502 163.87361
          Condensed to atoms (all electrons):
               1          2          3          4          5          6
     1  P   12.536508   0.502774   0.271634   0.009939   0.164064   0.036486
     2  O    0.502774   8.232956  -0.020536  -0.018233   0.012673  -0.002890
     3  O    0.271634  -0.020536   8.045083   0.259423  -0.011583  -0.008429
     4  H    0.009939  -0.018233   0.259423   0.416877  -0.006416   0.000969
     5  O    0.164064   0.012673  -0.011583  -0.006416   8.103413   0.222600
     6  H    0.036486  -0.002890  -0.008429   0.000969   0.222600   0.447663
     7  O    0.278253  -0.061872   0.014953   0.005819  -0.027100  -0.009032
     8  H   -0.006342   0.002698  -0.004249   0.000577  -0.000298   0.000796
     9  O    0.039420  -0.021020  -0.013258   0.000891   0.004377   0.000087
    10  H    0.003459   0.003052   0.000954  -0.000151  -0.000212  -0.000018
    11  H   -0.005658   0.000698   0.002056  -0.000239  -0.000212  -0.000007
    12  O   -0.004880  -0.001375  -0.005939   0.000594  -0.000097   0.000000
    13  H   -0.000510  -0.001336   0.000672  -0.000047   0.000002   0.000002
    14  H    0.011267   0.033578   0.000630  -0.000328   0.001546  -0.000058
               7          8          9         10         11         12
     1  P    0.278253  -0.006342   0.039420   0.003459  -0.005658  -0.004880
     2  O   -0.061872   0.002698  -0.021020   0.003052   0.000698  -0.001375
     3  O    0.014953  -0.004249  -0.013258   0.000954   0.002056  -0.005939
     4  H    0.005819   0.000577   0.000891  -0.000151  -0.000239   0.000594
     5  O   -0.027100  -0.000298   0.004377  -0.000212  -0.000212  -0.000097
     6  H   -0.009032   0.000796   0.000087  -0.000018  -0.000007   0.000000
     7  O    8.157173   0.246788   0.032555  -0.009359  -0.003793   0.000452
     8  H    0.246788   0.332414  -0.053929   0.020810   0.005026  -0.005905
     9  O    0.032555  -0.053929   8.039002   0.284930   0.328512   0.049035
    10  H   -0.009359   0.020810   0.284930   0.348631  -0.019711  -0.054605
    11  H   -0.003793   0.005026   0.328512  -0.019711   0.409786  -0.004700
    12  O    0.000452  -0.005905   0.049035  -0.054605  -0.004700   8.066184
    13  H    0.000047   0.000170  -0.003084  -0.000813  -0.000870   0.326279
    14  H   -0.001660   0.002404  -0.015335   0.018309   0.000454   0.274514
              13         14
     1  P   -0.000510   0.011267
     2  O   -0.001336   0.033578
     3  O    0.000672   0.000630
     4  H   -0.000047  -0.000328
     5  O    0.000002   0.001546
     6  H    0.000002  -0.000058
     7  O    0.000047  -0.001660
     8  H    0.000170   0.002404
     9  O   -0.003084  -0.015335
    10  H   -0.000813   0.018309
    11  H   -0.000870   0.000454
    12  O    0.326279   0.274514
    13  H    0.409606  -0.022441
    14  H   -0.022441   0.357311
 Mulliken charges:
               1
     1  P    1.163586
     2  O   -0.661165
     3  O   -0.531411
     4  H    0.330325
     5  O   -0.462757
     6  H    0.311831
     7  O   -0.623225
     8  H    0.459040
     9  O   -0.672182
    10  H    0.404724
    11  H    0.288660
    12  O   -0.639557
    13  H    0.292323
    14  H    0.339809
 Sum of Mulliken charges =  -0.00000
 Mulliken charges with hydrogens summed into heavy atoms:
               1
     1  P    1.163586
     2  O   -0.661165
     3  O   -0.201086
     5  O   -0.150926
     7  O   -0.164186
     9  O    0.021202
    12  O   -0.007425
         Mulliken charges condensed to fragments:
      1     -0.013777
      2      0.021202
      3     -0.007425
 Electronic spatial extent (au):  <R**2>=         103032.4912
 Charge=             -0.0000 electrons
 Dipole moment (field-independent basis, Debye):
    X=             -4.4601    Y=              1.7647    Z=             -0.5840  Tot=              4.8319
 Quadrupole moment (field-independent basis, Debye-Ang):
   XX=           -125.1875   YY=              8.1474   ZZ=            -63.0654
   XY=            -50.3682   XZ=            -45.1558   YZ=              2.2550
 Traceless Quadrupole moment (field-independent basis, Debye-Ang):
   XX=            -65.1524   YY=             68.1825   ZZ=             -3.0302
   XY=            -50.3682   XZ=            -45.1558   YZ=              2.2550
 Octapole moment (field-independent basis, Debye-Ang**2):
  XXX=          -2358.2337  YYY=           -927.7068  ZZZ=          -1409.3637  XYY=           -929.1028
  XXY=          -1776.4217  XXZ=          -1125.5159  XZZ=           -950.5575  YZZ=           -935.6403
  YYZ=           -171.7142  XYZ=           -585.4501
 Hexadecapole moment (field-independent basis, Debye-Ang**3):
 XXXX=         -37291.5817 YYYY=         -43879.1185 ZZZZ=         -22430.9917 XXXY=         -35510.7646
 XXXZ=         -20354.7639 YYYX=         -23882.3162 YYYZ=         -12124.4771 ZZZX=         -16505.9897
 ZZZY=         -22149.9248 XXYY=         -29293.7003 XXZZ=         -14974.3307 YYZZ=         -17212.4564
 XXYZ=         -16559.4851 YYXZ=         -10939.9393 ZZXY=         -14367.1273
 N-N= 4.557008624804D+02 E-N=-2.800610049305D+03  KE= 7.949583562058D+02
 No NMR shielding tensors so no spin-rotation constants.
 Leave Link  601 at Sat Dec 17 22:53:11 2022, MaxMem=  6710886400 cpu:               2.2 elap:               0.1
 (Enter /data0/home/software/g16/l122.exe)
 CPIOFr:  IOpCl= 0 IRwI=-1 IRwCP=  731 ICalc= -1 LCPTot=       89292 Len1MO=      233639 IndFrg=       89292
 CPIOFr:  IOpCl= 0 IRwI=-1 IRwCP=  731 ICalc=  0 LCPTot=       89292 Len1MO=      233639 IndFrg=      322931
 Counterpoise: doing calculation for fragment   1 using the basis set of the full-system, NewBq=T
 Leave Link  122 at Sat Dec 17 22:53:11 2022, MaxMem=  6710886400 cpu:               0.1 elap:               0.0
 (Enter /data0/home/software/g16/l301.exe)
 Basis read from rwf:  (5D, 7F)
 No pseudopotential information found on rwf file.
   239 basis functions,   364 primitive gaussians,   253 cartesian basis functions
    25 alpha electrons       25 beta electrons
       nuclear repulsion energy       280.0207879417 Hartrees.
 IExCor= 4336 DFT=T Ex+Corr=M062X ExCW=0 ScaHFX=  0.540000
 ScaDFX=  1.000000  1.000000  1.000000  1.000000 ScalE2=  1.000000  1.000000
 IRadAn=      5 IRanWt=     -1 IRanGd=            0 ICorTp=0 IEmpDi=131
 NAtoms=   14 NActive=   14 NUniq=   14 SFac= 1.00D+00 NAtFMM=   60 NAOKFM=F Big=F
 Integral buffers will be    131072 words long.
 Raffenetti 2 integral format.
 Two-electron integral symmetry is turned off.
 R6Disp:  Grimme-D3 Dispersion energy=       -0.0000463369 Hartrees.
 Nuclear repulsion after empirical dispersion term =      280.0207416048 Hartrees.
 No density basis found on file   718.
 Leave Link  301 at Sat Dec 17 22:53:11 2022, MaxMem=  6710886400 cpu:               1.3 elap:               0.1
 (Enter /data0/home/software/g16/l302.exe)
 NPDir=0 NMtPBC=     1 NCelOv=     1 NCel=       1 NClECP=     1 NCelD=      1
         NCelK=      1 NCelE2=     1 NClLst=     1 CellRange=     0.0.
 One-electron integrals computed using PRISM.
 NBasis=   239 RedAO= T EigKep=  4.38D-04  NBF=   239
 NBsUse=   239 1.00D-06 EigRej= -1.00D+00 NBFU=   239
 Precomputing XC quadrature grid using
 IXCGrd= 4 IRadAn=           5 IRanWt=          -1 IRanGd=           0 AccXCQ= 0.00D+00.
 Generated NRdTot=       0 NPtTot=           0 NUsed=           0 NTot=          32
 NSgBfM=   253   253   253   253   253 MxSgAt=    14 MxSgA2=    14.
 Leave Link  302 at Sat Dec 17 22:53:12 2022, MaxMem=  6710886400 cpu:               3.8 elap:               0.2
 (Enter /data0/home/software/g16/l303.exe)
 DipDrv:  MaxL=1.
 Leave Link  303 at Sat Dec 17 22:53:12 2022, MaxMem=  6710886400 cpu:               0.6 elap:               0.0
 (Enter /data0/home/software/g16/l401.exe)
 ExpMin= 3.48D-02 ExpMax= 7.75D+04 ExpMxC= 2.65D+03 IAcc=3 IRadAn=         5 AccDes= 0.00D+00
 Harris functional with IExCor= 1009 and IRadAn=       5 diagonalized for initial guess.
 HarFok:  IExCor= 1009 AccDes= 0.00D+00 IRadAn=         5 IDoV= 1 UseB2=F ITyADJ=14
 ICtDFT=  3500011 ScaDFX=  1.000000  1.000000  1.000000  1.000000
 FoFCou: FMM=F IPFlag=           0 FMFlag=      100000 FMFlg1=           0
         NFxFlg=           0 DoJE=T BraDBF=F KetDBF=T FulRan=T
         wScrn=  0.000000 ICntrl=       500 IOpCl=  0 I1Cent=   200000004 NGrid=           0
         NMat0=    1 NMatS0=      1 NMatT0=    0 NMatD0=    1 NMtDS0=    0 NMtDT0=    0
 Symmetry not used in FoFCou.
 Harris En= -643.943149063832    
 JPrj=0 DoOrth=F DoCkMO=F.
 Leave Link  401 at Sat Dec 17 22:53:12 2022, MaxMem=  6710886400 cpu:              10.4 elap:               0.5
 (Enter /data0/home/software/g16/l502.exe)
 Two-electron integral symmetry not used.
 Closed shell SCF:
 Using DIIS extrapolation, IDIIS=  1040.
 NGot=  6710886400 LenX=  6710750439 LenY=  6710685989
 Requested convergence on RMS density matrix=1.00D-08 within 128 cycles.
 Requested convergence on MAX density matrix=1.00D-06.
 Requested convergence on             energy=1.00D-06.
 No special actions if energy rises.
 Fock matrices will be formed incrementally for  20 cycles.

 Cycle   1  Pass 1  IDiag  1:
 FoFJK:  IHMeth= 1 ICntrl=       0 DoSepK=F KAlg= 0 I1Cent=           0 FoldK=F
 IRaf= 930000000 NMat=       1 IRICut=       1 DoRegI=T DoRafI=F ISym2E= 0 IDoP0=0 IntGTp=1.
 FoFCou: FMM=F IPFlag=           0 FMFlag=      100000 FMFlg1=           0
         NFxFlg=           0 DoJE=F BraDBF=F KetDBF=F FulRan=T
         wScrn=  0.000000 ICntrl=         0 IOpCl=  0 I1Cent=           0 NGrid=           0
         NMat0=    1 NMatS0=      1 NMatT0=    0 NMatD0=    1 NMtDS0=    0 NMtDT0=    0
 Symmetry not used in FoFCou.
 E= -643.869306615110    
 DIIS: error= 3.68D-02 at cycle   1 NSaved=   1.
 NSaved= 1 IEnMin= 1 EnMin= -643.869306615110     IErMin= 1 ErrMin= 3.68D-02
 ErrMax= 3.68D-02  0.00D+00 EMaxC= 1.00D-01 BMatC= 5.02D-01 BMatP= 5.02D-01
 IDIUse=3 WtCom= 6.32D-01 WtEn= 3.68D-01
 Coeff-Com:  0.100D+01
 Coeff-En:   0.100D+01
 Coeff:      0.100D+01
 Gap=     0.310 Goal=   None    Shift=    0.000
 GapD=    0.310 DampG=1.000 DampE=0.500 DampFc=0.5000 IDamp=-1.
 Damping current iteration by 5.00D-01
 RMSDP=4.86D-03 MaxDP=1.77D-01              OVMax= 2.50D-01

 Cycle   2  Pass 1  IDiag  1:
 RMSU=  2.43D-03    CP:  1.00D+00
 E= -643.985192181960     Delta-E=       -0.115885566850 Rises=F Damp=T
 DIIS: error= 8.89D-03 at cycle   2 NSaved=   2.
 NSaved= 2 IEnMin= 2 EnMin= -643.985192181960     IErMin= 2 ErrMin= 8.89D-03
 ErrMax= 8.89D-03  0.00D+00 EMaxC= 1.00D-01 BMatC= 2.62D-02 BMatP= 5.02D-01
 IDIUse=3 WtCom= 9.11D-01 WtEn= 8.89D-02
 Coeff-Com:  0.666D-01 0.933D+00
 Coeff-En:   0.194D+00 0.806D+00
 Coeff:      0.780D-01 0.922D+00
 Gap=     0.364 Goal=   None    Shift=    0.000
 RMSDP=1.13D-03 MaxDP=4.93D-02 DE=-1.16D-01 OVMax= 1.54D-01

 Cycle   3  Pass 1  IDiag  1:
 RMSU=  8.16D-04    CP:  9.92D-01  6.81D-01
 E= -644.145782034857     Delta-E=       -0.160589852897 Rises=F Damp=F
 DIIS: error= 5.42D-03 at cycle   3 NSaved=   3.
 NSaved= 3 IEnMin= 3 EnMin= -644.145782034857     IErMin= 3 ErrMin= 5.42D-03
 ErrMax= 5.42D-03  0.00D+00 EMaxC= 1.00D-01 BMatC= 9.60D-03 BMatP= 2.62D-02
 IDIUse=3 WtCom= 9.46D-01 WtEn= 5.42D-02
 Coeff-Com: -0.173D-01 0.334D+00 0.683D+00
 Coeff-En:   0.000D+00 0.000D+00 0.100D+01
 Coeff:     -0.163D-01 0.316D+00 0.700D+00
 Gap=     0.353 Goal=   None    Shift=    0.000
 RMSDP=4.50D-04 MaxDP=1.49D-02 DE=-1.61D-01 OVMax= 3.39D-02

 Cycle   4  Pass 1  IDiag  1:
 RMSU=  3.71D-04    CP:  9.92D-01  7.73D-01  8.49D-01
 E= -644.150015553357     Delta-E=       -0.004233518500 Rises=F Damp=F
 DIIS: error= 3.35D-03 at cycle   4 NSaved=   4.
 NSaved= 4 IEnMin= 4 EnMin= -644.150015553357     IErMin= 4 ErrMin= 3.35D-03
 ErrMax= 3.35D-03  0.00D+00 EMaxC= 1.00D-01 BMatC= 3.77D-03 BMatP= 9.60D-03
 IDIUse=3 WtCom= 9.66D-01 WtEn= 3.35D-02
 Coeff-Com: -0.212D-01 0.493D-01 0.408D+00 0.564D+00
 Coeff-En:   0.000D+00 0.000D+00 0.283D+00 0.717D+00
 Coeff:     -0.205D-01 0.476D-01 0.403D+00 0.570D+00
 Gap=     0.360 Goal=   None    Shift=    0.000
 RMSDP=1.79D-04 MaxDP=6.14D-03 DE=-4.23D-03 OVMax= 1.13D-02

 Cycle   5  Pass 1  IDiag  1:
 RMSU=  4.82D-05    CP:  9.92D-01  7.47D-01  9.47D-01  6.29D-01
 E= -644.152517541776     Delta-E=       -0.002501988419 Rises=F Damp=F
 DIIS: error= 1.73D-04 at cycle   5 NSaved=   5.
 NSaved= 5 IEnMin= 5 EnMin= -644.152517541776     IErMin= 5 ErrMin= 1.73D-04
 ErrMax= 1.73D-04  0.00D+00 EMaxC= 1.00D-01 BMatC= 1.49D-05 BMatP= 3.77D-03
 IDIUse=3 WtCom= 9.98D-01 WtEn= 1.73D-03
 Coeff-Com: -0.256D-02 0.890D-03 0.628D-01 0.121D+00 0.818D+00
 Coeff-En:   0.000D+00 0.000D+00 0.000D+00 0.000D+00 0.100D+01
 Coeff:     -0.255D-02 0.888D-03 0.627D-01 0.121D+00 0.818D+00
 Gap=     0.359 Goal=   None    Shift=    0.000
 RMSDP=1.66D-05 MaxDP=8.82D-04 DE=-2.50D-03 OVMax= 7.52D-04

 Cycle   6  Pass 1  IDiag  1:
 RMSU=  1.34D-05    CP:  9.91D-01  7.44D-01  9.50D-01  6.48D-01  9.93D-01
 E= -644.152527783066     Delta-E=       -0.000010241290 Rises=F Damp=F
 DIIS: error= 4.51D-05 at cycle   6 NSaved=   6.
 NSaved= 6 IEnMin= 6 EnMin= -644.152527783066     IErMin= 6 ErrMin= 4.51D-05
 ErrMax= 4.51D-05  0.00D+00 EMaxC= 1.00D-01 BMatC= 9.93D-07 BMatP= 1.49D-05
 IDIUse=1 WtCom= 1.00D+00 WtEn= 0.00D+00
 Coeff-Com:  0.327D-04-0.140D-02 0.197D-02 0.104D-01 0.205D+00 0.784D+00
 Coeff:      0.327D-04-0.140D-02 0.197D-02 0.104D-01 0.205D+00 0.784D+00
 Gap=     0.359 Goal=   None    Shift=    0.000
 RMSDP=6.65D-06 MaxDP=2.43D-04 DE=-1.02D-05 OVMax= 2.11D-04

 Cycle   7  Pass 1  IDiag  1:
 RMSU=  2.94D-06    CP:  9.91D-01  7.43D-01  9.51D-01  6.51D-01  1.09D+00
                    CP:  9.14D-01
 E= -644.152528547995     Delta-E=       -0.000000764929 Rises=F Damp=F
 DIIS: error= 1.64D-05 at cycle   7 NSaved=   7.
 NSaved= 7 IEnMin= 7 EnMin= -644.152528547995     IErMin= 7 ErrMin= 1.64D-05
 ErrMax= 1.64D-05  0.00D+00 EMaxC= 1.00D-01 BMatC= 1.45D-07 BMatP= 9.93D-07
 IDIUse=1 WtCom= 1.00D+00 WtEn= 0.00D+00
 Coeff-Com:  0.343D-03-0.581D-03-0.784D-02-0.123D-01-0.241D-01 0.259D+00
 Coeff-Com:  0.786D+00
 Coeff:      0.343D-03-0.581D-03-0.784D-02-0.123D-01-0.241D-01 0.259D+00
 Coeff:      0.786D+00
 Gap=     0.359 Goal=   None    Shift=    0.000
 RMSDP=1.92D-06 MaxDP=5.47D-05 DE=-7.65D-07 OVMax= 7.99D-05

 Cycle   8  Pass 1  IDiag  1:
 RMSU=  1.26D-06    CP:  9.91D-01  7.43D-01  9.52D-01  6.51D-01  1.10D+00
                    CP:  9.90D-01  1.00D+00
 E= -644.152528648280     Delta-E=       -0.000000100284 Rises=F Damp=F
 DIIS: error= 7.82D-06 at cycle   8 NSaved=   8.
 NSaved= 8 IEnMin= 8 EnMin= -644.152528648280     IErMin= 8 ErrMin= 7.82D-06
 ErrMax= 7.82D-06  0.00D+00 EMaxC= 1.00D-01 BMatC= 2.95D-08 BMatP= 1.45D-07
 IDIUse=1 WtCom= 1.00D+00 WtEn= 0.00D+00
 Coeff-Com:  0.153D-03-0.204D-03-0.387D-02-0.616D-02-0.188D-01 0.861D-01
 Coeff-Com:  0.394D+00 0.549D+00
 Coeff:      0.153D-03-0.204D-03-0.387D-02-0.616D-02-0.188D-01 0.861D-01
 Coeff:      0.394D+00 0.549D+00
 Gap=     0.359 Goal=   None    Shift=    0.000
 RMSDP=5.17D-07 MaxDP=2.33D-05 DE=-1.00D-07 OVMax= 2.98D-05

 Cycle   9  Pass 1  IDiag  1:
 RMSU=  3.49D-07    CP:  9.91D-01  7.43D-01  9.52D-01  6.51D-01  1.10D+00
                    CP:  9.95D-01  1.09D+00  7.96D-01
 E= -644.152528668453     Delta-E=       -0.000000020174 Rises=F Damp=F
 DIIS: error= 1.31D-06 at cycle   9 NSaved=   9.
 NSaved= 9 IEnMin= 9 EnMin= -644.152528668453     IErMin= 9 ErrMin= 1.31D-06
 ErrMax= 1.31D-06  0.00D+00 EMaxC= 1.00D-01 BMatC= 7.17D-10 BMatP= 2.95D-08
 IDIUse=1 WtCom= 1.00D+00 WtEn= 0.00D+00
 Coeff-Com: -0.256D-04 0.480D-04 0.294D-03 0.573D-03-0.251D-03-0.194D-01
 Coeff-Com: -0.343D-01 0.807D-01 0.972D+00
 Coeff:     -0.256D-04 0.480D-04 0.294D-03 0.573D-03-0.251D-03-0.194D-01
 Coeff:     -0.343D-01 0.807D-01 0.972D+00
 Gap=     0.359 Goal=   None    Shift=    0.000
 RMSDP=2.02D-07 MaxDP=6.96D-06 DE=-2.02D-08 OVMax= 8.10D-06

 Cycle  10  Pass 1  IDiag  1:
 RMSU=  8.74D-08    CP:  9.91D-01  7.43D-01  9.52D-01  6.51D-01  1.11D+00
                    CP:  9.95D-01  1.12D+00  8.89D-01  1.09D+00
 E= -644.152528669266     Delta-E=       -0.000000000813 Rises=F Damp=F
 DIIS: error= 1.30D-07 at cycle  10 NSaved=  10.
 NSaved=10 IEnMin=10 EnMin= -644.152528669266     IErMin=10 ErrMin= 1.30D-07
 ErrMax= 1.30D-07  0.00D+00 EMaxC= 1.00D-01 BMatC= 1.04D-11 BMatP= 7.17D-10
 IDIUse=1 WtCom= 1.00D+00 WtEn= 0.00D+00
 Coeff-Com: -0.256D-05 0.392D-05 0.959D-04 0.145D-03 0.514D-03-0.281D-02
 Coeff-Com: -0.128D-01-0.177D-01 0.609D-03 0.103D+01
 Coeff:     -0.256D-05 0.392D-05 0.959D-04 0.145D-03 0.514D-03-0.281D-02
 Coeff:     -0.128D-01-0.177D-01 0.609D-03 0.103D+01
 Gap=     0.359 Goal=   None    Shift=    0.000
 RMSDP=3.90D-08 MaxDP=8.07D-07 DE=-8.13D-10 OVMax= 1.73D-06

 Cycle  11  Pass 1  IDiag  1:
 RMSU=  1.89D-08    CP:  9.91D-01  7.43D-01  9.52D-01  6.51D-01  1.11D+00
                    CP:  9.95D-01  1.12D+00  9.01D-01  1.15D+00  1.16D+00
 E= -644.152528669310     Delta-E=       -0.000000000044 Rises=F Damp=F
 DIIS: error= 4.34D-08 at cycle  11 NSaved=  11.
 NSaved=11 IEnMin=11 EnMin= -644.152528669310     IErMin=11 ErrMin= 4.34D-08
 ErrMax= 4.34D-08  0.00D+00 EMaxC= 1.00D-01 BMatC= 6.99D-13 BMatP= 1.04D-11
 IDIUse=1 WtCom= 1.00D+00 WtEn= 0.00D+00
 Coeff-Com:  0.120D-05-0.216D-05-0.422D-05-0.133D-04 0.499D-04 0.562D-03
 Coeff-Com:  0.759D-03-0.468D-02-0.464D-01 0.101D+00 0.949D+00
 Coeff:      0.120D-05-0.216D-05-0.422D-05-0.133D-04 0.499D-04 0.562D-03
 Coeff:      0.759D-03-0.468D-02-0.464D-01 0.101D+00 0.949D+00
 Gap=     0.359 Goal=   None    Shift=    0.000
 RMSDP=7.89D-09 MaxDP=2.27D-07 DE=-4.37D-11 OVMax= 3.71D-07

 SCF Done:  E(RM062X) =  -644.152528669     A.U. after   11 cycles
            NFock= 11  Conv=0.79D-08     -V/T= 2.0025
 KE= 6.425162843724D+02 PE=-2.087751162633D+03 EE= 5.210616079864D+02
 Leave Link  502 at Sat Dec 17 22:53:23 2022, MaxMem=  6710886400 cpu:             246.7 elap:              10.3
 (Enter /data0/home/software/g16/l601.exe)
 Copying SCF densities to generalized density rwf, IOpCl= 0 IROHF=0.

 **********************************************************************

            Population analysis using the SCF density.

 **********************************************************************

 Alpha  occ. eigenvalues --  -78.16823 -19.68759 -19.68446 -19.67663 -19.58833
 Alpha  occ. eigenvalues --   -6.97595  -5.09493  -5.09481  -5.09300  -1.24275
 Alpha  occ. eigenvalues --   -1.16835  -1.16475  -1.09061  -0.72828  -0.65260
 Alpha  occ. eigenvalues --   -0.63924  -0.56624  -0.55112  -0.51280  -0.48462
 Alpha  occ. eigenvalues --   -0.47872  -0.45831  -0.43300  -0.38516  -0.38010
 Alpha virt. eigenvalues --   -0.02094   0.01027   0.01613   0.04547   0.07298
 Alpha virt. eigenvalues --    0.07846   0.10806   0.11352   0.12523   0.12672
 Alpha virt. eigenvalues --    0.14782   0.15592   0.15852   0.17212   0.17758
 Alpha virt. eigenvalues --    0.19398   0.19729   0.20507   0.21098   0.22136
 Alpha virt. eigenvalues --    0.22893   0.24317   0.24936   0.26086   0.26672
 Alpha virt. eigenvalues --    0.28056   0.28793   0.29033   0.29933   0.30361
 Alpha virt. eigenvalues --    0.31467   0.33136   0.34513   0.35009   0.36195
 Alpha virt. eigenvalues --    0.37706   0.38425   0.40033   0.41672   0.42588
 Alpha virt. eigenvalues --    0.44945   0.46236   0.48514   0.50583   0.55683
 Alpha virt. eigenvalues --    0.57148   0.63026   0.65066   0.70429   0.72745
 Alpha virt. eigenvalues --    0.74404   0.76378   0.76909   0.77604   0.78956
 Alpha virt. eigenvalues --    0.81725   0.84878   0.87406   0.89339   0.96114
 Alpha virt. eigenvalues --    0.97022   0.98447   1.01483   1.04266   1.06843
 Alpha virt. eigenvalues --    1.08710   1.09623   1.12792   1.13878   1.14604
 Alpha virt. eigenvalues --    1.18210   1.20268   1.21032   1.22359   1.24625
 Alpha virt. eigenvalues --    1.26899   1.27387   1.33751   1.34927   1.39066
 Alpha virt. eigenvalues --    1.42920   1.46158   1.48570   1.50892   1.57257
 Alpha virt. eigenvalues --    1.57866   1.61295   1.63674   1.65260   1.66361
 Alpha virt. eigenvalues --    1.68660   1.71340   1.74060   1.75985   1.79432
 Alpha virt. eigenvalues --    1.80603   1.82074   1.84913   1.85546   1.86265
 Alpha virt. eigenvalues --    1.91297   1.93787   1.96569   1.99454   2.01594
 Alpha virt. eigenvalues --    2.05175   2.06812   2.07999   2.11279   2.14998
 Alpha virt. eigenvalues --    2.16284   2.20571   2.22165   2.23070   2.26431
 Alpha virt. eigenvalues --    2.27548   2.32489   2.40501   2.41439   2.44686
 Alpha virt. eigenvalues --    2.47726   2.49170   2.52380   2.55947   2.58196
 Alpha virt. eigenvalues --    2.59056   2.60197   2.61565   2.62974   2.63259
 Alpha virt. eigenvalues --    2.64588   2.68219   2.71946   2.74511   2.75956
 Alpha virt. eigenvalues --    2.78478   2.83069   2.85191   2.86264   2.93275
 Alpha virt. eigenvalues --    2.94806   2.99026   3.00644   3.07866   3.12030
 Alpha virt. eigenvalues --    3.51395   3.53102   3.63444   3.68240   4.52342
 Alpha virt. eigenvalues --    4.59083   5.03312   5.05444   5.06930   5.08508
 Alpha virt. eigenvalues --    5.09111   5.10314   5.12557   5.17055   5.22347
 Alpha virt. eigenvalues --    5.28287   5.37555   5.48497   5.53607   5.58450
 Alpha virt. eigenvalues --    6.71971   6.74567   6.76775   6.78129   6.79163
 Alpha virt. eigenvalues --    6.79896   6.82795   6.86713   6.89656   6.95589
 Alpha virt. eigenvalues --    6.96678   6.97743   7.01047   7.05119   7.10948
 Alpha virt. eigenvalues --    7.22121   7.26640   7.29371   7.33684   7.41170
 Alpha virt. eigenvalues --    7.65059   9.79275   9.80961   9.84890   9.87866
 Alpha virt. eigenvalues --    9.91004   9.94269   9.97082  10.00119  10.14704
 Alpha virt. eigenvalues --   10.16728  12.91202  12.96861  13.26680  13.32287
 Alpha virt. eigenvalues --   13.73012  13.81087  14.23138  14.25288  14.35849
 Alpha virt. eigenvalues --   17.71880  17.80200  50.00169  50.01614  50.01838
 Alpha virt. eigenvalues --   50.09682 136.59466 137.57822 163.87496
          Condensed to atoms (all electrons):
               1          2          3          4          5          6
     1  P   12.506644   0.543578   0.284268   0.005057   0.187012   0.038764
     2  O    0.543578   8.130940  -0.022198  -0.016267   0.006885   0.000297
     3  O    0.284268  -0.022198   8.012543   0.268353   0.017219  -0.012300
     4  H    0.005057  -0.016267   0.268353   0.402139  -0.005494   0.000974
     5  O    0.187012   0.006885   0.017219  -0.005494   8.032377   0.223709
     6  H    0.038764   0.000297  -0.012300   0.000974   0.223709   0.452669
     7  O    0.243710  -0.042287   0.013404   0.005074  -0.007557  -0.011612
     8  H   -0.008076  -0.001528  -0.012207   0.000916   0.003575   0.000793
     9  O   -0.001030  -0.006732   0.004703   0.000115  -0.000583   0.000141
    10  H    0.001697   0.002282  -0.000836   0.000012   0.000122  -0.000017
    11  H   -0.000945   0.000205  -0.000995  -0.000062   0.000108  -0.000010
    12  O   -0.000269   0.006763  -0.000968  -0.000040  -0.000099  -0.000032
    13  H   -0.000032  -0.002105  -0.000070   0.000041   0.000013   0.000002
    14  H    0.000252   0.004909   0.000815  -0.000136   0.000285  -0.000005
               7          8          9         10         11         12
     1  P    0.243710  -0.008076  -0.001030   0.001697  -0.000945  -0.000269
     2  O   -0.042287  -0.001528  -0.006732   0.002282   0.000205   0.006763
     3  O    0.013404  -0.012207   0.004703  -0.000836  -0.000995  -0.000968
     4  H    0.005074   0.000916   0.000115   0.000012  -0.000062  -0.000040
     5  O   -0.007557   0.003575  -0.000583   0.000122   0.000108  -0.000099
     6  H   -0.011612   0.000793   0.000141  -0.000017  -0.000010  -0.000032
     7  O    8.089136   0.285467   0.022826  -0.001969  -0.003222  -0.003564
     8  H    0.285467   0.323540   0.007493   0.001826  -0.000474   0.000203
     9  O    0.022826   0.007493   0.023877  -0.005119  -0.008573  -0.004192
    10  H   -0.001969   0.001826  -0.005119   0.002538   0.001270   0.000737
    11  H   -0.003222  -0.000474  -0.008573   0.001270   0.005008   0.000679
    12  O   -0.003564   0.000203  -0.004192   0.000737   0.000679   0.011945
    13  H    0.000225  -0.000191   0.001010  -0.000284  -0.000193  -0.003808
    14  H    0.001972  -0.000408   0.001409   0.000024  -0.000163  -0.006838
              13         14
     1  P   -0.000032   0.000252
     2  O   -0.002105   0.004909
     3  O   -0.000070   0.000815
     4  H    0.000041  -0.000136
     5  O    0.000013   0.000285
     6  H    0.000002  -0.000005
     7  O    0.000225   0.001972
     8  H   -0.000191  -0.000408
     9  O    0.001010   0.001409
    10  H   -0.000284   0.000024
    11  H   -0.000193  -0.000163
    12  O   -0.003808  -0.006838
    13  H    0.002100   0.001448
    14  H    0.001448   0.006239
 Mulliken charges:
               1
     1  P    1.199370
     2  O   -0.604742
     3  O   -0.551732
     4  H    0.339318
     5  O   -0.457573
     6  H    0.306627
     7  O   -0.591602
     8  H    0.399070
     9  O   -0.035344
    10  H   -0.002282
    11  H    0.007367
    12  O   -0.000517
    13  H    0.001845
    14  H   -0.009806
 Sum of Mulliken charges =  -0.00000
 Mulliken charges with hydrogens summed into heavy atoms:
               1
     1  P    1.199370
     2  O   -0.604742
     3  O   -0.212413
     5  O   -0.150946
     7  O   -0.192532
     9  O   -0.030260
    12  O   -0.008477
         Mulliken charges condensed to fragments:
      1      0.038737
      2     -0.030260
      3     -0.008477
 Electronic spatial extent (au):  <R**2>=          80026.6559
 Charge=             -0.0000 electrons
 Dipole moment (field-independent basis, Debye):
    X=             -2.0029    Y=              1.1406    Z=             -2.8733  Tot=              3.6835
 Quadrupole moment (field-independent basis, Debye-Ang):
   XX=            -71.5247   YY=              7.0625   ZZ=            -85.2569
   XY=            -22.3330   XZ=            -47.5079   YZ=            -35.4972
 Traceless Quadrupole moment (field-independent basis, Debye-Ang):
   XX=            -21.6183   YY=             56.9689   ZZ=            -35.3506
   XY=            -22.3330   XZ=            -47.5079   YZ=            -35.4972
 Octapole moment (field-independent basis, Debye-Ang**2):
  XXX=          -1512.0206  YYY=           -623.9620  ZZZ=          -1520.7468  XYY=           -480.9105
  XXY=          -1092.6055  XXZ=           -910.0466  XZZ=          -1010.3367  YZZ=          -1305.9736
  YYZ=           -650.7200  XYZ=           -678.2710
 Hexadecapole moment (field-independent basis, Debye-Ang**3):
 XXXX=         -25727.2337 YYYY=         -32392.1660 ZZZZ=         -21987.9106 XXXY=         -24389.9417
 XXXZ=         -15679.4616 YYYX=         -14953.3328 YYYZ=         -16479.9250 ZZZX=         -16402.6230
 ZZZY=         -24374.7208 XXYY=         -19374.2125 XXZZ=         -13679.6269 YYZZ=         -22171.3773
 XXYZ=         -14187.6475 YYXZ=         -11934.5978 ZZXY=         -15829.7138
 N-N= 2.800207416048D+02 E-N=-2.087751167765D+03  KE= 6.425162843724D+02
 No NMR shielding tensors so no spin-rotation constants.
 Leave Link  601 at Sat Dec 17 22:53:23 2022, MaxMem=  6710886400 cpu:               2.1 elap:               0.1
 (Enter /data0/home/software/g16/l122.exe)
 CPIOFr:  IOpCl= 0 IRwI=-1 IRwCP=  731 ICalc=  1 LCPTot=       89292 Len1MO=      233639 IndFrg=      556570
 Counterpoise: doing calculation for fragment   2 using the basis set of the full-system, NewBq=T
 Leave Link  122 at Sat Dec 17 22:53:23 2022, MaxMem=  6710886400 cpu:               0.1 elap:               0.0
 (Enter /data0/home/software/g16/l301.exe)
 Basis read from rwf:  (5D, 7F)
 No pseudopotential information found on rwf file.
   239 basis functions,   364 primitive gaussians,   253 cartesian basis functions
     5 alpha electrons        5 beta electrons
       nuclear repulsion energy         9.1104841041 Hartrees.
 IExCor= 4336 DFT=T Ex+Corr=M062X ExCW=0 ScaHFX=  0.540000
 ScaDFX=  1.000000  1.000000  1.000000  1.000000 ScalE2=  1.000000  1.000000
 IRadAn=      5 IRanWt=     -1 IRanGd=            0 ICorTp=0 IEmpDi=131
 NAtoms=   14 NActive=   14 NUniq=   14 SFac= 1.00D+00 NAtFMM=   60 NAOKFM=F Big=F
 Integral buffers will be    131072 words long.
 Raffenetti 2 integral format.
 Two-electron integral symmetry is turned off.
 R6Disp:  Grimme-D3 Dispersion energy=       -0.0000000079 Hartrees.
 Nuclear repulsion after empirical dispersion term =        9.1104840962 Hartrees.
 No density basis found on file   718.
 Leave Link  301 at Sat Dec 17 22:53:23 2022, MaxMem=  6710886400 cpu:               1.3 elap:               0.1
 (Enter /data0/home/software/g16/l302.exe)
 NPDir=0 NMtPBC=     1 NCelOv=     1 NCel=       1 NClECP=     1 NCelD=      1
         NCelK=      1 NCelE2=     1 NClLst=     1 CellRange=     0.0.
 One-electron integrals computed using PRISM.
 NBasis=   239 RedAO= T EigKep=  4.38D-04  NBF=   239
 NBsUse=   239 1.00D-06 EigRej= -1.00D+00 NBFU=   239
 Precomputing XC quadrature grid using
 IXCGrd= 4 IRadAn=           5 IRanWt=          -1 IRanGd=           0 AccXCQ= 0.00D+00.
 Generated NRdTot=       0 NPtTot=           0 NUsed=           0 NTot=          32
 NSgBfM=   253   253   253   253   253 MxSgAt=    14 MxSgA2=    14.
 Leave Link  302 at Sat Dec 17 22:53:23 2022, MaxMem=  6710886400 cpu:               3.9 elap:               0.2
 (Enter /data0/home/software/g16/l303.exe)
 DipDrv:  MaxL=1.
 Leave Link  303 at Sat Dec 17 22:53:23 2022, MaxMem=  6710886400 cpu:               0.6 elap:               0.0
 (Enter /data0/home/software/g16/l401.exe)
 ExpMin= 3.48D-02 ExpMax= 7.75D+04 ExpMxC= 2.65D+03 IAcc=3 IRadAn=         5 AccDes= 0.00D+00
 Harris functional with IExCor= 1009 and IRadAn=       5 diagonalized for initial guess.
 HarFok:  IExCor= 1009 AccDes= 0.00D+00 IRadAn=         5 IDoV= 1 UseB2=F ITyADJ=14
 ICtDFT=  3500011 ScaDFX=  1.000000  1.000000  1.000000  1.000000
 FoFCou: FMM=F IPFlag=           0 FMFlag=      100000 FMFlg1=           0
         NFxFlg=           0 DoJE=T BraDBF=F KetDBF=T FulRan=T
         wScrn=  0.000000 ICntrl=       500 IOpCl=  0 I1Cent=   200000004 NGrid=           0
         NMat0=    1 NMatS0=      1 NMatT0=    0 NMatD0=    1 NMtDS0=    0 NMtDT0=    0
 Symmetry not used in FoFCou.
 Harris En= -76.4175272618633    
 JPrj=0 DoOrth=F DoCkMO=F.
 Leave Link  401 at Sat Dec 17 22:53:23 2022, MaxMem=  6710886400 cpu:              10.1 elap:               0.4
 (Enter /data0/home/software/g16/l502.exe)
 Two-electron integral symmetry not used.
 Closed shell SCF:
 Using DIIS extrapolation, IDIIS=  1040.
 NGot=  6710886400 LenX=  6710750439 LenY=  6710685989
 Requested convergence on RMS density matrix=1.00D-08 within 128 cycles.
 Requested convergence on MAX density matrix=1.00D-06.
 Requested convergence on             energy=1.00D-06.
 No special actions if energy rises.
 Fock matrices will be formed incrementally for  20 cycles.

 Cycle   1  Pass 1  IDiag  1:
 FoFJK:  IHMeth= 1 ICntrl=       0 DoSepK=F KAlg= 0 I1Cent=           0 FoldK=F
 IRaf= 930000000 NMat=       1 IRICut=       1 DoRegI=T DoRafI=F ISym2E= 0 IDoP0=0 IntGTp=1.
 FoFCou: FMM=F IPFlag=           0 FMFlag=      100000 FMFlg1=           0
         NFxFlg=           0 DoJE=F BraDBF=F KetDBF=F FulRan=T
         wScrn=  0.000000 ICntrl=         0 IOpCl=  0 I1Cent=           0 NGrid=           0
         NMat0=    1 NMatS0=      1 NMatT0=    0 NMatD0=    1 NMtDS0=    0 NMtDT0=    0
 Symmetry not used in FoFCou.
 E= -76.3476098255446    
 DIIS: error= 2.85D-02 at cycle   1 NSaved=   1.
 NSaved= 1 IEnMin= 1 EnMin= -76.3476098255446     IErMin= 1 ErrMin= 2.85D-02
 ErrMax= 2.85D-02  0.00D+00 EMaxC= 1.00D-01 BMatC= 1.21D-01 BMatP= 1.21D-01
 IDIUse=3 WtCom= 7.15D-01 WtEn= 2.85D-01
 Coeff-Com:  0.100D+01
 Coeff-En:   0.100D+01
 Coeff:      0.100D+01
 Gap=     0.272 Goal=   None    Shift=    0.000
 GapD=    0.272 DampG=1.000 DampE=0.500 DampFc=0.5000 IDamp=-1.
 Damping current iteration by 5.00D-01
 RMSDP=2.92D-03 MaxDP=1.18D-01              OVMax= 1.73D-01

 Cycle   2  Pass 1  IDiag  1:
 RMSU=  1.46D-03    CP:  1.02D+00
 E= -76.3786439304461     Delta-E=       -0.031034104902 Rises=F Damp=T
 DIIS: error= 6.45D-03 at cycle   2 NSaved=   2.
 NSaved= 2 IEnMin= 2 EnMin= -76.3786439304461     IErMin= 2 ErrMin= 6.45D-03
 ErrMax= 6.45D-03  0.00D+00 EMaxC= 1.00D-01 BMatC= 5.00D-03 BMatP= 1.21D-01
 IDIUse=3 WtCom= 9.36D-01 WtEn= 6.45D-02
 Coeff-Com:  0.865D-01 0.913D+00
 Coeff-En:   0.196D+00 0.804D+00
 Coeff:      0.936D-01 0.906D+00
 Gap=     0.399 Goal=   None    Shift=    0.000
 RMSDP=4.39D-04 MaxDP=2.22D-02 DE=-3.10D-02 OVMax= 1.04D-01

 Cycle   3  Pass 1  IDiag  1:
 RMSU=  2.70D-04    CP:  1.02D+00  7.63D-01
 E= -76.4229661689624     Delta-E=       -0.044322238516 Rises=F Damp=F
 DIIS: error= 9.92D-04 at cycle   3 NSaved=   3.
 NSaved= 3 IEnMin= 3 EnMin= -76.4229661689624     IErMin= 3 ErrMin= 9.92D-04
 ErrMax= 9.92D-04  0.00D+00 EMaxC= 1.00D-01 BMatC= 1.41D-04 BMatP= 5.00D-03
 IDIUse=3 WtCom= 9.90D-01 WtEn= 9.92D-03
 Coeff-Com: -0.267D-01 0.482D-01 0.979D+00
 Coeff-En:   0.000D+00 0.000D+00 0.100D+01
 Coeff:     -0.265D-01 0.477D-01 0.979D+00
 Gap=     0.402 Goal=   None    Shift=    0.000
 RMSDP=3.58D-05 MaxDP=1.37D-03 DE=-4.43D-02 OVMax= 3.81D-03

 Cycle   4  Pass 1  IDiag  1:
 RMSU=  3.11D-05    CP:  1.02D+00  7.63D-01  1.05D+00
 E= -76.4230793226785     Delta-E=       -0.000113153716 Rises=F Damp=F
 DIIS: error= 1.60D-04 at cycle   4 NSaved=   4.
 NSaved= 4 IEnMin= 4 EnMin= -76.4230793226785     IErMin= 4 ErrMin= 1.60D-04
 ErrMax= 1.60D-04  0.00D+00 EMaxC= 1.00D-01 BMatC= 2.61D-06 BMatP= 1.41D-04
 IDIUse=3 WtCom= 9.98D-01 WtEn= 1.60D-03
 Coeff-Com: -0.259D-02-0.205D-03 0.140D+00 0.863D+00
 Coeff-En:   0.000D+00 0.000D+00 0.000D+00 0.100D+01
 Coeff:     -0.259D-02-0.204D-03 0.139D+00 0.863D+00
 Gap=     0.402 Goal=   None    Shift=    0.000
 RMSDP=8.38D-06 MaxDP=4.33D-04 DE=-1.13D-04 OVMax= 5.18D-04

 Cycle   5  Pass 1  IDiag  1:
 RMSU=  4.68D-06    CP:  1.02D+00  7.59D-01  1.06D+00  1.07D+00
 E= -76.4230810165577     Delta-E=       -0.000001693879 Rises=F Damp=F
 DIIS: error= 2.58D-05 at cycle   5 NSaved=   5.
 NSaved= 5 IEnMin= 5 EnMin= -76.4230810165577     IErMin= 5 ErrMin= 2.58D-05
 ErrMax= 2.58D-05  0.00D+00 EMaxC= 1.00D-01 BMatC= 7.15D-08 BMatP= 2.61D-06
 IDIUse=1 WtCom= 1.00D+00 WtEn= 0.00D+00
 Coeff-Com:  0.138D-02-0.214D-02-0.359D-01-0.401D-01 0.108D+01
 Coeff:      0.138D-02-0.214D-02-0.359D-01-0.401D-01 0.108D+01
 Gap=     0.402 Goal=   None    Shift=    0.000
 RMSDP=6.65D-06 MaxDP=3.36D-04 DE=-1.69D-06 OVMax= 2.07D-04

 Cycle   6  Pass 1  IDiag  1:
 RMSU=  1.27D-06    CP:  1.02D+00  7.55D-01  1.06D+00  1.15D+00  1.33D+00
 E= -76.4230811450033     Delta-E=       -0.000000128446 Rises=F Damp=F
 DIIS: error= 2.12D-06 at cycle   6 NSaved=   6.
 NSaved= 6 IEnMin= 6 EnMin= -76.4230811450033     IErMin= 6 ErrMin= 2.12D-06
 ErrMax= 2.12D-06  0.00D+00 EMaxC= 1.00D-01 BMatC= 1.88D-09 BMatP= 7.15D-08
 IDIUse=1 WtCom= 1.00D+00 WtEn= 0.00D+00
 Coeff-Com: -0.266D-03 0.379D-03 0.348D-02-0.994D-02-0.150D+00 0.116D+01
 Coeff:     -0.266D-03 0.379D-03 0.348D-02-0.994D-02-0.150D+00 0.116D+01
 Gap=     0.402 Goal=   None    Shift=    0.000
 RMSDP=9.18D-07 MaxDP=5.02D-05 DE=-1.28D-07 OVMax= 3.99D-05

 Cycle   7  Pass 1  IDiag  1:
 RMSU=  1.34D-07    CP:  1.02D+00  7.54D-01  1.06D+00  1.16D+00  1.40D+00
                    CP:  1.22D+00
 E= -76.4230811487300     Delta-E=       -0.000000003727 Rises=F Damp=F
 DIIS: error= 3.59D-07 at cycle   7 NSaved=   7.
 NSaved= 7 IEnMin= 7 EnMin= -76.4230811487300     IErMin= 7 ErrMin= 3.59D-07
 ErrMax= 3.59D-07  0.00D+00 EMaxC= 1.00D-01 BMatC= 2.46D-11 BMatP= 1.88D-09
 IDIUse=1 WtCom= 1.00D+00 WtEn= 0.00D+00
 Coeff-Com:  0.163D-04-0.564D-05-0.113D-03 0.190D-02-0.497D-02-0.991D-01
 Coeff-Com:  0.110D+01
 Coeff:      0.163D-04-0.564D-05-0.113D-03 0.190D-02-0.497D-02-0.991D-01
 Coeff:      0.110D+01
 Gap=     0.402 Goal=   None    Shift=    0.000
 RMSDP=1.21D-07 MaxDP=6.97D-06 DE=-3.73D-09 OVMax= 5.18D-06

 Cycle   8  Pass 1  IDiag  1:
 RMSU=  2.29D-08    CP:  1.02D+00  7.54D-01  1.06D+00  1.16D+00  1.41D+00
                    CP:  1.24D+00  1.21D+00
 E= -76.4230811487852     Delta-E=       -0.000000000055 Rises=F Damp=F
 DIIS: error= 8.37D-08 at cycle   8 NSaved=   8.
 NSaved= 8 IEnMin= 8 EnMin= -76.4230811487852     IErMin= 8 ErrMin= 8.37D-08
 ErrMax= 8.37D-08  0.00D+00 EMaxC= 1.00D-01 BMatC= 1.32D-12 BMatP= 2.46D-11
 IDIUse=1 WtCom= 1.00D+00 WtEn= 0.00D+00
 Coeff-Com:  0.114D-04-0.141D-04-0.111D-03 0.681D-03 0.379D-02-0.495D-01
 Coeff-Com:  0.155D+00 0.890D+00
 Coeff:      0.114D-04-0.141D-04-0.111D-03 0.681D-03 0.379D-02-0.495D-01
 Coeff:      0.155D+00 0.890D+00
 Gap=     0.402 Goal=   None    Shift=    0.000
 RMSDP=9.50D-09 MaxDP=5.72D-07 DE=-5.52D-11 OVMax= 6.36D-07

 SCF Done:  E(RM062X) =  -76.4230811488     A.U. after    8 cycles
            NFock=  8  Conv=0.95D-08     -V/T= 2.0031
 KE= 7.618782216915D+01 PE=-1.990628049423D+02 EE= 3.734141752810D+01
 Leave Link  502 at Sat Dec 17 22:53:31 2022, MaxMem=  6710886400 cpu:             171.8 elap:               7.2
 (Enter /data0/home/software/g16/l601.exe)
 Copying SCF densities to generalized density rwf, IOpCl= 0 IROHF=0.

 **********************************************************************

            Population analysis using the SCF density.

 **********************************************************************

 Alpha  occ. eigenvalues --  -19.62662  -1.13345  -0.60867  -0.47497  -0.40030
 Alpha virt. eigenvalues --    0.00206   0.03831   0.04591   0.05303   0.08624
 Alpha virt. eigenvalues --    0.10497   0.12818   0.13167   0.14569   0.15679
 Alpha virt. eigenvalues --    0.16645   0.18091   0.18451   0.20073   0.20825
 Alpha virt. eigenvalues --    0.21386   0.22214   0.22546   0.23453   0.25400
 Alpha virt. eigenvalues --    0.25997   0.26501   0.28802   0.29574   0.30939
 Alpha virt. eigenvalues --    0.32763   0.33680   0.34694   0.35208   0.36328
 Alpha virt. eigenvalues --    0.37429   0.38153   0.39114   0.40007   0.42225
 Alpha virt. eigenvalues --    0.43340   0.45086   0.48148   0.50533   0.55330
 Alpha virt. eigenvalues --    0.61197   0.63218   0.68419   0.70542   0.71520
 Alpha virt. eigenvalues --    0.72601   0.73352   0.74522   0.75644   0.76885
 Alpha virt. eigenvalues --    0.79069   0.81175   0.83172   0.84740   0.85791
 Alpha virt. eigenvalues --    0.87223   0.89889   0.93765   0.95962   0.97783
 Alpha virt. eigenvalues --    1.01057   1.02857   1.05727   1.06721   1.07995
 Alpha virt. eigenvalues --    1.08507   1.10821   1.13314   1.14912   1.16155
 Alpha virt. eigenvalues --    1.18142   1.23710   1.24449   1.26700   1.28645
 Alpha virt. eigenvalues --    1.32088   1.33542   1.43926   1.47322   1.48603
 Alpha virt. eigenvalues --    1.54355   1.66803   1.68442   1.74331   1.76532
 Alpha virt. eigenvalues --    1.79163   1.83346   1.88144   1.93927   1.95103
 Alpha virt. eigenvalues --    2.01446   2.02823   2.07395   2.09157   2.11185
 Alpha virt. eigenvalues --    2.16693   2.17582   2.22536   2.23279   2.29597
 Alpha virt. eigenvalues --    2.30163   2.33890   2.35225   2.40430   2.41160
 Alpha virt. eigenvalues --    2.43418   2.44217   2.47334   2.49762   2.50755
 Alpha virt. eigenvalues --    2.52645   2.54022   2.55964   2.58187   2.59996
 Alpha virt. eigenvalues --    2.61432   2.61790   2.63324   2.63717   2.67789
 Alpha virt. eigenvalues --    2.69735   2.70152   2.72436   2.73442   2.75323
 Alpha virt. eigenvalues --    2.80138   2.80888   2.84508   2.86864   2.89431
 Alpha virt. eigenvalues --    2.91710   2.92682   2.93899   2.95363   2.98574
 Alpha virt. eigenvalues --    3.00140   3.03574   3.06209   3.06732   3.10546
 Alpha virt. eigenvalues --    3.11969   3.17040   3.18090   3.22976   3.24726
 Alpha virt. eigenvalues --    3.27297   3.32049   3.34270   3.40207   3.47392
 Alpha virt. eigenvalues --    3.49876   3.62212   3.70554   3.79212   3.82592
 Alpha virt. eigenvalues --    4.43789   4.44445   4.49638   4.53790   4.56958
 Alpha virt. eigenvalues --    4.63167   4.74112   4.88370   4.93084   4.97212
 Alpha virt. eigenvalues --    5.09394   5.16224   5.55373   5.97193   6.82152
 Alpha virt. eigenvalues --    6.83393   6.92178   7.00176   7.13601   9.74259
 Alpha virt. eigenvalues --    9.77616   9.80302   9.86296   9.87045   9.89793
 Alpha virt. eigenvalues --    9.92802   9.95236  10.01466  10.03963  10.10347
 Alpha virt. eigenvalues --   10.11708  10.15088  10.17008  10.19982  10.22977
 Alpha virt. eigenvalues --   10.26929  10.31184  10.34706  10.38594  10.40313
 Alpha virt. eigenvalues --   10.45413  10.46799  10.55758  10.61943  10.64970
 Alpha virt. eigenvalues --   10.72759  10.85892  12.84864  12.86057  12.97389
 Alpha virt. eigenvalues --   13.20855  13.24180  13.28077  13.29089  13.34539
 Alpha virt. eigenvalues --   13.38418  13.47087  13.58700  13.65040  13.68908
 Alpha virt. eigenvalues --   13.76056  13.94780  14.09190  17.62715  17.74517
 Alpha virt. eigenvalues --   18.25291  18.33100  18.52802  50.02611  52.45963
 Alpha virt. eigenvalues --   52.50473  52.58689  70.06413 135.46354 137.01975
 Alpha virt. eigenvalues --  139.09701 139.33875 139.74137 481.48700
          Condensed to atoms (all electrons):
               1          2          3          4          5          6
     1  P    0.043333  -0.007422  -0.003529  -0.000253  -0.025201   0.000751
     2  O   -0.007422   0.009518   0.004199   0.000232  -0.006870   0.000058
     3  O   -0.003529   0.004199   0.007636   0.000071  -0.007483   0.000150
     4  H   -0.000253   0.000232   0.000071   0.000215  -0.000430   0.000007
     5  O   -0.025201  -0.006870  -0.007483  -0.000430   0.038656  -0.000962
     6  H    0.000751   0.000058   0.000150   0.000007  -0.000962   0.000060
     7  O   -0.007656  -0.003153  -0.007480   0.000175   0.007194  -0.000141
     8  H    0.006927   0.002593   0.006765  -0.000180  -0.004677   0.000072
     9  O    0.005898  -0.002288  -0.008500   0.000342   0.002456  -0.000019
    10  H    0.001312   0.000204   0.000492  -0.000053   0.000089  -0.000000
    11  H   -0.001208   0.000218   0.001176  -0.000056  -0.000098  -0.000000
    12  O   -0.009732   0.006692   0.000952   0.000090  -0.000868   0.000001
    13  H    0.002155  -0.001562  -0.000249  -0.000018   0.000107  -0.000000
    14  H    0.005799  -0.005030  -0.000584  -0.000058   0.000878  -0.000002
               7          8          9         10         11         12
     1  P   -0.007656   0.006927   0.005898   0.001312  -0.001208  -0.009732
     2  O   -0.003153   0.002593  -0.002288   0.000204   0.000218   0.006692
     3  O   -0.007480   0.006765  -0.008500   0.000492   0.001176   0.000952
     4  H    0.000175  -0.000180   0.000342  -0.000053  -0.000056   0.000090
     5  O    0.007194  -0.004677   0.002456   0.000089  -0.000098  -0.000868
     6  H   -0.000141   0.000072  -0.000019  -0.000000  -0.000000   0.000001
     7  O    0.057084  -0.068995   0.087338  -0.010481  -0.004939   0.002507
     8  H   -0.068995   0.093885  -0.151086   0.019805   0.010256  -0.003753
     9  O    0.087338  -0.151086   7.968539   0.323694   0.341608   0.041168
    10  H   -0.010481   0.019805   0.323694   0.363093  -0.030242   0.001118
    11  H   -0.004939   0.010256   0.341608  -0.030242   0.424005   0.002581
    12  O    0.002507  -0.003753   0.041168   0.001118   0.002581   0.036935
    13  H   -0.000131   0.000217  -0.007967   0.001158  -0.000672  -0.012913
    14  H   -0.001002   0.001410  -0.011440   0.000790  -0.000194  -0.015630
              13         14
     1  P    0.002155   0.005799
     2  O   -0.001562  -0.005030
     3  O   -0.000249  -0.000584
     4  H   -0.000018  -0.000058
     5  O    0.000107   0.000878
     6  H   -0.000000  -0.000002
     7  O   -0.000131  -0.001002
     8  H    0.000217   0.001410
     9  O   -0.007967  -0.011440
    10  H    0.001158   0.000790
    11  H   -0.000672  -0.000194
    12  O   -0.012913  -0.015630
    13  H    0.006033   0.004658
    14  H    0.004658   0.008695
 Mulliken charges:
               1
     1  P   -0.011174
     2  O    0.002611
     3  O    0.006383
     4  H   -0.000085
     5  O   -0.002791
     6  H    0.000024
     7  O   -0.050321
     8  H    0.086760
     9  O   -0.589743
    10  H    0.329020
    11  H    0.257567
    12  O   -0.049148
    13  H    0.009186
    14  H    0.011711
 Sum of Mulliken charges =  -0.00000
 Mulliken charges with hydrogens summed into heavy atoms:
               1
     1  P   -0.011174
     2  O    0.002611
     3  O    0.006299
     5  O   -0.002767
     7  O    0.036439
     9  O   -0.003156
    12  O   -0.028252
         Mulliken charges condensed to fragments:
      1      0.031408
      2     -0.003156
      3     -0.028252
 Electronic spatial extent (au):  <R**2>=          11098.2551
 Charge=             -0.0000 electrons
 Dipole moment (field-independent basis, Debye):
    X=             -1.5451    Y=             -0.3709    Z=              1.1925  Tot=              1.9867
 Quadrupole moment (field-independent basis, Debye-Ang):
   XX=            -32.6508   YY=            -17.4829   ZZ=              9.6212
   XY=            -25.2243   XZ=              1.3170   YZ=             13.0923
 Traceless Quadrupole moment (field-independent basis, Debye-Ang):
   XX=            -19.1466   YY=             -3.9787   ZZ=             23.1254
   XY=            -25.2243   XZ=              1.3170   YZ=             13.0923
 Octapole moment (field-independent basis, Debye-Ang**2):
  XXX=           -503.7840  YYY=           -513.5315  ZZZ=             39.3845  XYY=           -465.5749
  XXY=           -490.6035  XXZ=           -104.4802  XZZ=             30.6839  YZZ=            103.9541
  YYZ=             87.9843  XYZ=            -15.3954
 Hexadecapole moment (field-independent basis, Debye-Ang**3):
 XXXX=          -6780.4347 YYYY=         -12277.5537 ZZZZ=           -112.8117 XXXY=          -7355.4646
 XXXZ=          -2256.0323 YYYX=          -8938.9005 YYYZ=           -713.8414 ZZZX=             32.8984
 ZZZY=            306.0516 XXYY=          -7884.0485 XXZZ=           -436.0643 YYZZ=            739.0997
 XXYZ=          -1772.6592 YYXZ=          -1081.9485 ZZXY=            145.2393
 N-N= 9.110484096243D+00 E-N=-1.990628070670D+02  KE= 7.618782216915D+01
 No NMR shielding tensors so no spin-rotation constants.
 Leave Link  601 at Sat Dec 17 22:53:31 2022, MaxMem=  6710886400 cpu:               2.2 elap:               0.1
 (Enter /data0/home/software/g16/l122.exe)
 CPIOFr:  IOpCl= 0 IRwI=-1 IRwCP=  731 ICalc=  2 LCPTot=       89292 Len1MO=      233639 IndFrg=      790209
 Counterpoise: doing calculation for fragment   3 using the basis set of the full-system, NewBq=T
 Leave Link  122 at Sat Dec 17 22:53:31 2022, MaxMem=  6710886400 cpu:               0.1 elap:               0.0
 (Enter /data0/home/software/g16/l301.exe)
 Basis read from rwf:  (5D, 7F)
 No pseudopotential information found on rwf file.
   239 basis functions,   364 primitive gaussians,   253 cartesian basis functions
     5 alpha electrons        5 beta electrons
       nuclear repulsion energy         9.1243081451 Hartrees.
 IExCor= 4336 DFT=T Ex+Corr=M062X ExCW=0 ScaHFX=  0.540000
 ScaDFX=  1.000000  1.000000  1.000000  1.000000 ScalE2=  1.000000  1.000000
 IRadAn=      5 IRanWt=     -1 IRanGd=            0 ICorTp=0 IEmpDi=131
 NAtoms=   14 NActive=   14 NUniq=   14 SFac= 1.00D+00 NAtFMM=   60 NAOKFM=F Big=F
 Integral buffers will be    131072 words long.
 Raffenetti 2 integral format.
 Two-electron integral symmetry is turned off.
 R6Disp:  Grimme-D3 Dispersion energy=       -0.0000000077 Hartrees.
 Nuclear repulsion after empirical dispersion term =        9.1243081374 Hartrees.
 No density basis found on file   718.
 Leave Link  301 at Sat Dec 17 22:53:31 2022, MaxMem=  6710886400 cpu:               1.3 elap:               0.1
 (Enter /data0/home/software/g16/l302.exe)
 NPDir=0 NMtPBC=     1 NCelOv=     1 NCel=       1 NClECP=     1 NCelD=      1
         NCelK=      1 NCelE2=     1 NClLst=     1 CellRange=     0.0.
 One-electron integrals computed using PRISM.
 NBasis=   239 RedAO= T EigKep=  4.38D-04  NBF=   239
 NBsUse=   239 1.00D-06 EigRej= -1.00D+00 NBFU=   239
 Precomputing XC quadrature grid using
 IXCGrd= 4 IRadAn=           5 IRanWt=          -1 IRanGd=           0 AccXCQ= 0.00D+00.
 Generated NRdTot=       0 NPtTot=           0 NUsed=           0 NTot=          32
 NSgBfM=   253   253   253   253   253 MxSgAt=    14 MxSgA2=    14.
 Leave Link  302 at Sat Dec 17 22:53:31 2022, MaxMem=  6710886400 cpu:               3.8 elap:               0.2
 (Enter /data0/home/software/g16/l303.exe)
 DipDrv:  MaxL=1.
 Leave Link  303 at Sat Dec 17 22:53:31 2022, MaxMem=  6710886400 cpu:               0.6 elap:               0.0
 (Enter /data0/home/software/g16/l401.exe)
 ExpMin= 3.48D-02 ExpMax= 7.75D+04 ExpMxC= 2.65D+03 IAcc=3 IRadAn=         5 AccDes= 0.00D+00
 Harris functional with IExCor= 1009 and IRadAn=       5 diagonalized for initial guess.
 HarFok:  IExCor= 1009 AccDes= 0.00D+00 IRadAn=         5 IDoV= 1 UseB2=F ITyADJ=14
 ICtDFT=  3500011 ScaDFX=  1.000000  1.000000  1.000000  1.000000
 FoFCou: FMM=F IPFlag=           0 FMFlag=      100000 FMFlg1=           0
         NFxFlg=           0 DoJE=T BraDBF=F KetDBF=T FulRan=T
         wScrn=  0.000000 ICntrl=       500 IOpCl=  0 I1Cent=   200000004 NGrid=           0
         NMat0=    1 NMatS0=      1 NMatT0=    0 NMatD0=    1 NMtDS0=    0 NMtDT0=    0
 Symmetry not used in FoFCou.
 Harris En= -76.4176167423212    
 JPrj=0 DoOrth=F DoCkMO=F.
 Leave Link  401 at Sat Dec 17 22:53:32 2022, MaxMem=  6710886400 cpu:              10.0 elap:               0.4
 (Enter /data0/home/software/g16/l502.exe)
 Two-electron integral symmetry not used.
 Closed shell SCF:
 Using DIIS extrapolation, IDIIS=  1040.
 NGot=  6710886400 LenX=  6710750439 LenY=  6710685989
 Requested convergence on RMS density matrix=1.00D-08 within 128 cycles.
 Requested convergence on MAX density matrix=1.00D-06.
 Requested convergence on             energy=1.00D-06.
 No special actions if energy rises.
 Fock matrices will be formed incrementally for  20 cycles.

 Cycle   1  Pass 1  IDiag  1:
 FoFJK:  IHMeth= 1 ICntrl=       0 DoSepK=F KAlg= 0 I1Cent=           0 FoldK=F
 IRaf= 930000000 NMat=       1 IRICut=       1 DoRegI=T DoRafI=F ISym2E= 0 IDoP0=0 IntGTp=1.
 FoFCou: FMM=F IPFlag=           0 FMFlag=      100000 FMFlg1=           0
         NFxFlg=           0 DoJE=F BraDBF=F KetDBF=F FulRan=T
         wScrn=  0.000000 ICntrl=         0 IOpCl=  0 I1Cent=           0 NGrid=           0
         NMat0=    1 NMatS0=      1 NMatT0=    0 NMatD0=    1 NMtDS0=    0 NMtDT0=    0
 Symmetry not used in FoFCou.
 E= -76.3474398451019    
 DIIS: error= 2.35D-02 at cycle   1 NSaved=   1.
 NSaved= 1 IEnMin= 1 EnMin= -76.3474398451019     IErMin= 1 ErrMin= 2.35D-02
 ErrMax= 2.35D-02  0.00D+00 EMaxC= 1.00D-01 BMatC= 1.21D-01 BMatP= 1.21D-01
 IDIUse=3 WtCom= 7.65D-01 WtEn= 2.35D-01
 Coeff-Com:  0.100D+01
 Coeff-En:   0.100D+01
 Coeff:      0.100D+01
 Gap=     0.270 Goal=   None    Shift=    0.000
 GapD=    0.270 DampG=1.000 DampE=0.500 DampFc=0.5000 IDamp=-1.
 Damping current iteration by 5.00D-01
 RMSDP=2.25D-03 MaxDP=9.99D-02              OVMax= 1.72D-01

 Cycle   2  Pass 1  IDiag  1:
 RMSU=  1.12D-03    CP:  9.87D-01
 E= -76.3786412495245     Delta-E=       -0.031201404423 Rises=F Damp=T
 DIIS: error= 3.90D-03 at cycle   2 NSaved=   2.
 NSaved= 2 IEnMin= 2 EnMin= -76.3786412495245     IErMin= 2 ErrMin= 3.90D-03
[...]
 (Enter /data0/home/software/g16/l601.exe)
 Copying SCF densities to generalized density rwf, IOpCl= 0 IROHF=0.

 **********************************************************************

            Population analysis using the SCF density.

 **********************************************************************

 Alpha  occ. eigenvalues --  -19.62569  -1.13353  -0.60876  -0.47427  -0.39980
 Alpha virt. eigenvalues --    0.06292   0.13334   0.17388   0.17948   0.18946
 Alpha virt. eigenvalues --    0.23242   0.51149   0.53531   0.97844   1.00223
 Alpha virt. eigenvalues --    1.06043   1.18817   1.19849   1.32557   1.33832
 Alpha virt. eigenvalues --    1.69470   1.74079   1.75871   2.07640   2.09455
 Alpha virt. eigenvalues --    2.35194   2.42464   2.54325   2.88577   3.01248
 Alpha virt. eigenvalues --    5.05695   5.47691   5.93152   6.78227   6.80306
 Alpha virt. eigenvalues --    6.87022   6.91489   7.09541  49.95949
          Condensed to atoms (all electrons):
               9         10         11
     9  O    7.915009   0.319634   0.323211
    10  H    0.319634   0.424392  -0.024564
    11  H    0.323211  -0.024564   0.424037
 Mulliken charges:
               1
     1  P    0.000000
     2  O    0.000000
     3  O    0.000000
     4  H    0.000000
     5  O    0.000000
     6  H    0.000000
     7  O    0.000000
     8  H    0.000000
     9  O   -0.557854
    10  H    0.280538
    11  H    0.277316
    12  O    0.000000
    13  H    0.000000
    14  H    0.000000
 Sum of Mulliken charges =  -0.00000
 Mulliken charges with hydrogens summed into heavy atoms:
               1
     1  P    0.000000
     2  O    0.000000
     3  O    0.000000
     5  O    0.000000
     7  O    0.000000
     9  O   -0.000000
    12  O    0.000000
         Mulliken charges condensed to fragments:
      1      0.000000
      2     -0.000000
      3      0.000000
 Electronic spatial extent (au):  <R**2>=          11099.4304
 Charge=             -0.0000 electrons
 Dipole moment (field-independent basis, Debye):
    X=             -1.6414    Y=             -0.4005    Z=              1.2616  Tot=              2.1086
 Quadrupole moment (field-independent basis, Debye-Ang):
   XX=            -34.3518   YY=            -18.3029   ZZ=             10.5612
   XY=            -26.8452   XZ=              1.2917   YZ=             13.8711
 Traceless Quadrupole moment (field-independent basis, Debye-Ang):
   XX=            -20.3206   YY=             -4.2717   ZZ=             24.5923
   XY=            -26.8452   XZ=              1.2917   YZ=             13.8711
 Octapole moment (field-independent basis, Debye-Ang**2):
  XXX=           -526.4772  YYY=           -530.6208  ZZZ=             49.1324  XYY=           -492.1153
  XXY=           -516.9475  XXZ=           -110.2289  XZZ=             34.7151  YZZ=            115.9435
  YYZ=             96.3856  XYZ=            -17.4907
 Hexadecapole moment (field-independent basis, Debye-Ang**3):
 XXXX=          -7051.2949 YYYY=         -12594.7684 ZZZZ=            -21.5787 XXXY=          -7696.6688
 XXXZ=          -2355.8726 YYYX=          -9365.0657 YYYZ=           -629.8470 ZZZX=             89.7285
 ZZZY=            435.3376 XXYY=          -8289.3273 XXZZ=           -437.0149 YYZZ=            891.8672
 XXYZ=          -1869.3361 YYXZ=          -1135.2007 ZZXY=            190.7532
 N-N= 9.110484096243D+00 E-N=-1.990740930695D+02  KE= 7.619801952932D+01
 No NMR shielding tensors so no spin-rotation constants.
 Leave Link  601 at Sat Dec 17 22:53:46 2022, MaxMem=  6710886400 cpu:               1.8 elap:               0.1
 (Enter /data0/home/software/g16/l122.exe)
 CPIOFr:  IOpCl= 0 IRwI=-1 IRwCP=  731 ICalc=  5 LCPTot=       89292 Len1MO=      233639 IndFrg=     1491126
 Counterpoise: doing calculation for fragment   3 using the basis set of the fragment.
 Leave Link  122 at Sat Dec 17 22:53:46 2022, MaxMem=  6710886400 cpu:               0.1 elap:               0.0
 (Enter /data0/home/software/g16/l301.exe)
 Basis read from rwf:  (5D, 7F)
 No pseudopotential information found on rwf file.
    39 basis functions,    58 primitive gaussians,    41 cartesian basis functions
     5 alpha electrons        5 beta electrons
       nuclear repulsion energy         9.1243081451 Hartrees.
 IExCor= 4336 DFT=T Ex+Corr=M062X ExCW=0 ScaHFX=  0.540000
 ScaDFX=  1.000000  1.000000  1.000000  1.000000 ScalE2=  1.000000  1.000000
 IRadAn=      5 IRanWt=     -1 IRanGd=            0 ICorTp=0 IEmpDi=131
 NAtoms=   14 NActive=    3 NUniq=    3 SFac= 1.00D+00 NAtFMM=   60 NAOKFM=F Big=F
 Integral buffers will be    131072 words long.
 Raffenetti 2 integral format.
 Two-electron integral symmetry is turned off.
 R6Disp:  Grimme-D3 Dispersion energy=       -0.0000000077 Hartrees.
 Nuclear repulsion after empirical dispersion term =        9.1243081374 Hartrees.
 No density basis found on file   718.
 Leave Link  301 at Sat Dec 17 22:53:46 2022, MaxMem=  6710886400 cpu:               1.1 elap:               0.1
 (Enter /data0/home/software/g16/l302.exe)
 NPDir=0 NMtPBC=     1 NCelOv=     1 NCel=       1 NClECP=     1 NCelD=      1
         NCelK=      1 NCelE2=     1 NClLst=     1 CellRange=     0.0.
 One-electron integrals computed using PRISM.
 NBasis=    39 RedAO= T EigKep=  3.03D-03  NBF=    39
 NBsUse=    39 1.00D-06 EigRej= -1.00D+00 NBFU=    39
 Precomputing XC quadrature grid using
 IXCGrd= 4 IRadAn=           5 IRanWt=          -1 IRanGd=           0 AccXCQ= 0.00D+00.
 Generated NRdTot=       0 NPtTot=           0 NUsed=           0 NTot=          32
 NSgBfM=    41    41    41    41    41 MxSgAt=     3 MxSgA2=     3.
 Leave Link  302 at Sat Dec 17 22:53:46 2022, MaxMem=  6710886400 cpu:               2.3 elap:               0.1
 (Enter /data0/home/software/g16/l303.exe)
 DipDrv:  MaxL=1.
 Leave Link  303 at Sat Dec 17 22:53:46 2022, MaxMem=  6710886400 cpu:               0.4 elap:               0.0
 (Enter /data0/home/software/g16/l401.exe)
 ExpMin= 8.45D-02 ExpMax= 8.59D+03 ExpMxC= 1.30D+03 IAcc=3 IRadAn=         5 AccDes= 0.00D+00
 Harris functional with IExCor= 1009 and IRadAn=       5 diagonalized for initial guess.
 HarFok:  IExCor= 1009 AccDes= 0.00D+00 IRadAn=         5 IDoV= 1 UseB2=F ITyADJ=14
 ICtDFT=  3500011 ScaDFX=  1.000000  1.000000  1.000000  1.000000
 FoFCou: FMM=F IPFlag=           0 FMFlag=      100000 FMFlg1=           0
         NFxFlg=           0 DoJE=T BraDBF=F KetDBF=T FulRan=T
         wScrn=  0.000000 ICntrl=       500 IOpCl=  0 I1Cent=   200000004 NGrid=           0
         NMat0=    1 NMatS0=      1 NMatT0=    0 NMatD0=    1 NMtDS0=    0 NMtDT0=    0
 Symmetry not used in FoFCou.
 Harris En= -76.4168715303231    
 JPrj=0 DoOrth=F DoCkMO=F.
 Leave Link  401 at Sat Dec 17 22:53:46 2022, MaxMem=  6710886400 cpu:               2.9 elap:               0.1
 (Enter /data0/home/software/g16/l502.exe)
 Keep R1 ints in memory in canonical form, NReq=21037771.
 FoFCou: FMM=F IPFlag=           0 FMFlag=           0 FMFlg1=           0
         NFxFlg=           0 DoJE=F BraDBF=F KetDBF=F FulRan=T
         wScrn=  0.000000 ICntrl=       600 IOpCl=  0 I1Cent=           0 NGrid=           0
         NMat0=    1 NMatS0=    780 NMatT0=    0 NMatD0=    1 NMtDS0=    0 NMtDT0=    0
 Symmetry not used in FoFCou.
 Two-electron integral symmetry not used.
 Closed shell SCF:
 Using DIIS extrapolation, IDIIS=  1040.
 NGot=  6710886400 LenX=  6710576653 LenY=  6710574531
 Requested convergence on RMS density matrix=1.00D-08 within 128 cycles.
 Requested convergence on MAX density matrix=1.00D-06.
 Requested convergence on             energy=1.00D-06.
 No special actions if energy rises.
 Integral accuracy reduced to 1.0D-05 until final iterations.

 Cycle   1  Pass 0  IDiag  1:
 E= -76.3462767239810    
 DIIS: error= 7.05D-02 at cycle   1 NSaved=   1.
 NSaved= 1 IEnMin= 1 EnMin= -76.3462767239810     IErMin= 1 ErrMin= 7.05D-02
 ErrMax= 7.05D-02  0.00D+00 EMaxC= 1.00D-01 BMatC= 1.21D-01 BMatP= 1.21D-01
 IDIUse=3 WtCom= 2.95D-01 WtEn= 7.05D-01
 Coeff-Com:  0.100D+01
 Coeff-En:   0.100D+01
 Coeff:      0.100D+01
 Gap=     0.325 Goal=   None    Shift=    0.000
 GapD=    0.325 DampG=1.000 DampE=0.500 DampFc=0.5000 IDamp=-1.
 Damping current iteration by 5.00D-01
 RMSDP=7.89D-03 MaxDP=1.01D-01              OVMax= 1.68D-01

 Cycle   2  Pass 0  IDiag  1:
 E= -76.3778986492119     Delta-E=       -0.031621925231 Rises=F Damp=T
 DIIS: error= 1.15D-02 at cycle   2 NSaved=   2.
 NSaved= 2 IEnMin= 2 EnMin= -76.3778986492119     IErMin= 2 ErrMin= 1.15D-02
 ErrMax= 1.15D-02  0.00D+00 EMaxC= 1.00D-01 BMatC= 4.80D-03 BMatP= 1.21D-01
 IDIUse=3 WtCom= 8.85D-01 WtEn= 1.15D-01
 Coeff-Com:  0.810D-01 0.919D+00
 Coeff-En:   0.185D+00 0.815D+00
 Coeff:      0.930D-01 0.907D+00
 Gap=     0.458 Goal=   None    Shift=    0.000
 RMSDP=9.35D-04 MaxDP=1.39D-02 DE=-3.16D-02 OVMax= 1.00D-01

 Cycle   3  Pass 0  IDiag  1:
 E= -76.4218811087877     Delta-E=       -0.043982459576 Rises=F Damp=F
 DIIS: error= 2.17D-03 at cycle   3 NSaved=   3.
 NSaved= 3 IEnMin= 3 EnMin= -76.4218811087877     IErMin= 3 ErrMin= 2.17D-03
 ErrMax= 2.17D-03  0.00D+00 EMaxC= 1.00D-01 BMatC= 9.05D-05 BMatP= 4.80D-03
 IDIUse=3 WtCom= 9.78D-01 WtEn= 2.17D-02
 Coeff-Com: -0.199D-01 0.394D-01 0.981D+00
 Coeff-En:   0.000D+00 0.000D+00 0.100D+01
 Coeff:     -0.195D-01 0.386D-01 0.981D+00
 Gap=     0.463 Goal=   None    Shift=    0.000
 RMSDP=1.14D-04 MaxDP=9.92D-04 DE=-4.40D-02 OVMax= 3.29D-03

 Cycle   4  Pass 0  IDiag  1:
 E= -76.4219581125372     Delta-E=       -0.000077003749 Rises=F Damp=F
 DIIS: error= 4.09D-04 at cycle   4 NSaved=   4.
 NSaved= 4 IEnMin= 4 EnMin= -76.4219581125372     IErMin= 4 ErrMin= 4.09D-04
 ErrMax= 4.09D-04  0.00D+00 EMaxC= 1.00D-01 BMatC= 3.25D-06 BMatP= 9.05D-05
 IDIUse=3 WtCom= 9.96D-01 WtEn= 4.09D-03
 Coeff-Com: -0.188D-02-0.218D-02 0.162D+00 0.842D+00
 Coeff-En:   0.000D+00 0.000D+00 0.000D+00 0.100D+01
 Coeff:     -0.187D-02-0.217D-02 0.162D+00 0.842D+00
 Gap=     0.463 Goal=   None    Shift=    0.000
 RMSDP=2.20D-05 MaxDP=3.52D-04 DE=-7.70D-05 OVMax= 5.28D-04

 Cycle   5  Pass 0  IDiag  1:
 E= -76.4219601138234     Delta-E=       -0.000002001286 Rises=F Damp=F
 DIIS: error= 8.79D-05 at cycle   5 NSaved=   5.
 NSaved= 5 IEnMin= 5 EnMin= -76.4219601138234     IErMin= 5 ErrMin= 8.79D-05
 ErrMax= 8.79D-05  0.00D+00 EMaxC= 1.00D-01 BMatC= 8.13D-08 BMatP= 3.25D-06
 IDIUse=1 WtCom= 1.00D+00 WtEn= 0.00D+00
 Coeff-Com:  0.116D-02-0.177D-02-0.362D-01-0.653D-01 0.110D+01
 Coeff:      0.116D-02-0.177D-02-0.362D-01-0.653D-01 0.110D+01
 Gap=     0.463 Goal=   None    Shift=    0.000
 RMSDP=8.88D-06 MaxDP=1.02D-04 DE=-2.00D-06 OVMax= 1.99D-04

 Initial convergence to 1.0D-05 achieved.  Increase integral accuracy.
 Cycle   6  Pass 1  IDiag  1:
 E= -76.4219484501481     Delta-E=        0.000011663675 Rises=F Damp=F
 DIIS: error= 1.49D-05 at cycle   1 NSaved=   1.
 NSaved= 1 IEnMin= 1 EnMin= -76.4219484501481     IErMin= 1 ErrMin= 1.49D-05
 ErrMax= 1.49D-05  0.00D+00 EMaxC= 1.00D-01 BMatC= 1.52D-08 BMatP= 1.52D-08
 IDIUse=1 WtCom= 1.00D+00 WtEn= 0.00D+00
 Coeff-Com:  0.100D+01
 Coeff:      0.100D+01
 Gap=     0.463 Goal=   None    Shift=    0.000
 RMSDP=8.88D-06 MaxDP=1.02D-04 DE= 1.17D-05 OVMax= 5.10D-05

 Cycle   7  Pass 1  IDiag  1:
 E= -76.4219484625169     Delta-E=       -0.000000012369 Rises=F Damp=F
 DIIS: error= 1.09D-05 at cycle   2 NSaved=   2.
 NSaved= 2 IEnMin= 2 EnMin= -76.4219484625169     IErMin= 2 ErrMin= 1.09D-05
 ErrMax= 1.09D-05  0.00D+00 EMaxC= 1.00D-01 BMatC= 1.94D-09 BMatP= 1.52D-08
 IDIUse=1 WtCom= 1.00D+00 WtEn= 0.00D+00
 Coeff-Com:  0.111D+00 0.889D+00
 Coeff:      0.111D+00 0.889D+00
 Gap=     0.463 Goal=   None    Shift=    0.000
 RMSDP=8.91D-07 MaxDP=1.50D-05 DE=-1.24D-08 OVMax= 2.29D-05

 Cycle   8  Pass 1  IDiag  1:
 E= -76.4219484629887     Delta-E=       -0.000000000472 Rises=F Damp=F
 DIIS: error= 7.78D-06 at cycle   3 NSaved=   3.
 NSaved= 3 IEnMin= 3 EnMin= -76.4219484629887     IErMin= 3 ErrMin= 7.78D-06
 ErrMax= 7.78D-06  0.00D+00 EMaxC= 1.00D-01 BMatC= 1.54D-09 BMatP= 1.94D-09
 IDIUse=1 WtCom= 1.00D+00 WtEn= 0.00D+00
 Coeff-Com: -0.463D-01 0.482D+00 0.564D+00
 Coeff:     -0.463D-01 0.482D+00 0.564D+00
 Gap=     0.463 Goal=   None    Shift=    0.000
 RMSDP=4.39D-07 MaxDP=5.72D-06 DE=-4.72D-10 OVMax= 1.05D-05

 Cycle   9  Pass 1  IDiag  1:
 E= -76.4219484640065     Delta-E=       -0.000000001018 Rises=F Damp=F
 DIIS: error= 5.93D-07 at cycle   4 NSaved=   4.
 NSaved= 4 IEnMin= 4 EnMin= -76.4219484640065     IErMin= 4 ErrMin= 5.93D-07
 ErrMax= 5.93D-07  0.00D+00 EMaxC= 1.00D-01 BMatC= 4.32D-12 BMatP= 1.54D-09
 IDIUse=1 WtCom= 1.00D+00 WtEn= 0.00D+00
 Coeff-Com: -0.355D-02-0.141D-01 0.568D-02 0.101D+01
 Coeff:     -0.355D-02-0.141D-01 0.568D-02 0.101D+01
 Gap=     0.463 Goal=   None    Shift=    0.000
 RMSDP=7.69D-08 MaxDP=6.72D-07 DE=-1.02D-09 OVMax= 1.64D-06

 Cycle  10  Pass 1  IDiag  1:
 E= -76.4219484640149     Delta-E=       -0.000000000008 Rises=F Damp=F
 DIIS: error= 1.08D-07 at cycle   5 NSaved=   5.
 NSaved= 5 IEnMin= 5 EnMin= -76.4219484640149     IErMin= 5 ErrMin= 1.08D-07
 ErrMax= 1.08D-07  0.00D+00 EMaxC= 1.00D-01 BMatC= 2.87D-13 BMatP= 4.32D-12
 IDIUse=1 WtCom= 1.00D+00 WtEn= 0.00D+00
 Coeff-Com:  0.246D-02-0.297D-01-0.308D-01 0.463D-01 0.101D+01
 Coeff:      0.246D-02-0.297D-01-0.308D-01 0.463D-01 0.101D+01
 Gap=     0.463 Goal=   None    Shift=    0.000
 RMSDP=2.30D-08 MaxDP=2.04D-07 DE=-8.41D-12 OVMax= 5.40D-07

 Cycle  11  Pass 1  IDiag  1:
 E= -76.4219484640154     Delta-E=       -0.000000000001 Rises=F Damp=F
 DIIS: error= 2.28D-08 at cycle   6 NSaved=   6.
 NSaved= 6 IEnMin= 6 EnMin= -76.4219484640154     IErMin= 6 ErrMin= 2.28D-08
 ErrMax= 2.28D-08  0.00D+00 EMaxC= 1.00D-01 BMatC= 6.10D-15 BMatP= 2.87D-13
 IDIUse=1 WtCom= 1.00D+00 WtEn= 0.00D+00
 Coeff-Com:  0.197D-04 0.850D-03 0.133D-02-0.330D-01-0.369D-01 0.107D+01
 Coeff:      0.197D-04 0.850D-03 0.133D-02-0.330D-01-0.369D-01 0.107D+01
 Gap=     0.463 Goal=   None    Shift=    0.000
 RMSDP=3.81D-09 MaxDP=2.80D-08 DE=-5.12D-13 OVMax= 7.53D-08

 SCF Done:  E(RM062X) =  -76.4219484640     A.U. after   11 cycles
            NFock= 11  Conv=0.38D-08     -V/T= 2.0029
 KE= 7.620320701898D+01 PE=-1.991036739396D+02 EE= 3.735421031922D+01
 Leave Link  502 at Sat Dec 17 22:53:46 2022, MaxMem=  6710886400 cpu:               8.6 elap:               0.4
 (Enter /data0/home/software/g16/l601.exe)
 Copying SCF densities to generalized density rwf, IOpCl= 0 IROHF=0.

 **********************************************************************

            Population analysis using the SCF density.

 **********************************************************************

 Alpha  occ. eigenvalues --  -19.62552  -1.13424  -0.60918  -0.47471  -0.39995
 Alpha virt. eigenvalues --    0.06327   0.13358   0.17385   0.17946   0.18942
 Alpha virt. eigenvalues --    0.23243   0.51459   0.53435   0.97856   1.00160
 Alpha virt. eigenvalues --    1.06045   1.18717   1.19919   1.32531   1.33760
 Alpha virt. eigenvalues --    1.69684   1.74217   1.75876   2.08206   2.09143
 Alpha virt. eigenvalues --    2.35402   2.42367   2.54434   2.88892   3.01351
 Alpha virt. eigenvalues --    5.05701   5.48102   5.93563   6.78245   6.80274
 Alpha virt. eigenvalues --    6.87047   6.91516   7.09405  49.96067
          Condensed to atoms (all electrons):
              12         13         14
    12  O    7.913638   0.322570   0.320783
    13  H    0.322570   0.424367  -0.024630
    14  H    0.320783  -0.024630   0.424548
 Mulliken charges:
               1
     1  P    0.000000
     2  O    0.000000
     3  O    0.000000
     4  H    0.000000
     5  O    0.000000
     6  H    0.000000
     7  O    0.000000
     8  H    0.000000
     9  O    0.000000
    10  H    0.000000
    11  H    0.000000
    12  O   -0.556991
    13  H    0.277693
    14  H    0.279298
 Sum of Mulliken charges =  -0.00000
 Mulliken charges with hydrogens summed into heavy atoms:
               1
     1  P    0.000000
     2  O    0.000000
     3  O    0.000000
     5  O    0.000000
     7  O    0.000000
     9  O    0.000000
    12  O   -0.000000
         Mulliken charges condensed to fragments:
      1      0.000000
      2      0.000000
      3     -0.000000
 Electronic spatial extent (au):  <R**2>=          11893.3084
 Charge=             -0.0000 electrons
 Dipole moment (field-independent basis, Debye):
    X=             -0.8351    Y=              1.6208    Z=              1.0606  Tot=              2.1093
 Quadrupole moment (field-independent basis, Debye-Ang):
   XX=            -19.4818   YY=             36.8553   ZZ=             11.9489
   XY=              4.0084   XZ=              1.0946   YZ=             29.2182
 Traceless Quadrupole moment (field-independent basis, Debye-Ang):
   XX=            -29.2560   YY=             27.0812   ZZ=              2.1747
   XY=              4.0084   XZ=              1.0946   YZ=             29.2182
 Octapole moment (field-independent basis, Debye-Ang**2):
  XXX=           -319.6059  YYY=            612.9931  ZZZ=             63.1394  XYY=            200.4173
  XXY=           -118.0414  XXZ=           -105.6430  XZZ=             25.1411  YZZ=            300.4409
  YYZ=            532.8968  XYZ=            155.4311
 Hexadecapole moment (field-independent basis, Debye-Ang**3):
 XXXX=          -4480.8127 YYYY=           8740.1471 ZZZZ=           -448.9668 XXXY=          -2933.7507
 XXXZ=          -2314.7303 YYYX=           3927.4019 YYYZ=           8276.0666 ZZZX=           -211.1556
 ZZZY=           2170.2983 XXYY=           -160.9131 XXZZ=           -867.5934 YYZZ=           5361.9466
 XXYZ=            -90.9831 YYXZ=           3452.4090 ZZXY=           1652.6651
 N-N= 9.124308137404D+00 E-N=-1.991036742192D+02  KE= 7.620320701898D+01
 No NMR shielding tensors so no spin-rotation constants.
 Leave Link  601 at Sat Dec 17 22:53:47 2022, MaxMem=  6710886400 cpu:               1.7 elap:               0.1
 (Enter /data0/home/software/g16/l122.exe)
 CPIOFr:  IOpCl= 0 IRwI=-1 IRwCP=  731 ICalc=  6 LCPTot=       89292 Len1MO=      233639 IndFrg=     1724765
 Restoring MOs from calculation   1 to rwf.
 CPIOFr:  IOpCl= 0 IRwI=-2 IRwCP=  731 ICalc=  0 LCPTot=       89292 Len1MO=      233639 IndFrg=      322931
 Counterpoise corrected energy =    -797.035479506347
                   BSSE energy =       0.002953572338
              sum of fragments =    -796.995674198168
           complexation energy =     -26.83 kcal/mole (raw)
           complexation energy =     -24.98 kcal/mole (corrected)
 Leave Link  122 at Sat Dec 17 22:53:47 2022, MaxMem=  6710886400 cpu:               0.1 elap:               0.0
 (Enter /data0/home/software/g16/l9999.exe)
 1\1\GINC-LOCALHOST\SP\RM062X\6-311+G(2d,p)\H7O6P1\WUHANYU\17-Dec-2022\
 0\\#p M062X/6-311+G(2d,p) nosymm em=GD3 counterpoise=3\\Title Card Req
 uired\\0,1\P,0,9.547939,16.899181,8.249616\O,0,9.607698,16.019786,9.42
 286\O,0,8.09883,17.384281,7.811414\H,0,7.4687,17.406937,8.653482\O,0,1
 0.390186,18.225593,8.500291\H,0,10.370026,18.781395,7.632182\O,0,10.14
 5594,16.370554,6.879466\H,0,9.67948,15.457157,6.648388\O,0,8.829859,13
 .887798,6.34496\H,0,8.836853,13.481191,7.232997\H,0,7.90812,14.067438,
 6.168199\O,0,8.70397,13.158344,9.050538\H,0,7.814211,13.229797,9.40207
 6\H,0,9.129393,13.995769,9.292346\\Version=ES64L-G16RevA.03\HF=-76.421
 9485\RMSD=3.813e-09\Dipole=-1.8153744,0.7059312,-0.1817746\Quadrupole=
 -50.4486188,51.2889604,-0.8403416,-38.8627708,-33.6203893,3.1798358\PG
 =C01 [X(H7O6P1)]\\@


 MAN IS A SINGULAR CREATURE.  HE HAS A SET OF GIFTS
 WHICH MAKE HIM UNIQUE AMONG THE ANIMALS: SO THAT, 
 UNLIKE THEM, HE IS NOT A FIGURE IN THE LANDSCAPE --
 HE IS A SHAPER OF THE LANDSCAPE.

                       -- JACOB BRONOWSKI
 Job cpu time:       0 days  0 hours 18 minutes 14.0 seconds.
 Elapsed time:       0 days  0 hours  0 minutes 48.0 seconds.
 File lengths (MBytes):  RWF=     53 Int=      0 D2E=      0 Chk=     17 Scr=      1
 Normal termination of Gaussian 16 at Sat Dec 17 22:53:47 2022.
