 Entering Gaussian System, Link 0=g16
 Initial command:
 /data0/hywu0/study/g16/l1.exe "/data0/hywu0/study/g16/scratch/Gau-184707.inp" -scrdir="/data0/hywu0/study/g16/scratch/"
 Default is to use a total of  16 processors:
                               16 via shared-memory
                                1 via Linda
 Entering Link 1 = /data0/hywu0/study/g16/l1.exe PID=    184708.
  
 Copyright (c) 1988,1990,1992,1993,1995,1998,2003,2009,2016,
            Gaussian, Inc.  All Rights Reserved.
  
 This is part of the Gaussian(R) 16 program.  It is based on
 the Gaussian(R) 09 system (copyright 2009, Gaussian, Inc.),
 the Gaussian(R) 03 system (copyright 2003, Gaussian, Inc.),
 the Gaussian(R) 98 system (copyright 1998, Gaussian, Inc.),
 the Gaussian(R) 94 system (copyright 1995, Gaussian, Inc.),
 the Gaussian 92(TM) system (copyright 1992, Gaussian, Inc.),
 the Gaussian 90(TM) system (copyright 1990, Gaussian, Inc.),
 the Gaussian 88(TM) system (copyright 1988, Gaussian, Inc.),
 the Gaussian 86(TM) system (copyright 1986, Carnegie Mellon
 University), and the Gaussian 82(TM) system (copyright 1983,
 Carnegie Mellon University). Gaussian is a federally registered
 trademark of Gaussian, Inc.
  
 This software contains proprietary and confidential information,
 including trade secrets, belonging to Gaussian, Inc.
  
 This software is provided under written license and may be
 used, copied, transmitted, or stored only in accord with that
 written license.
  
 The following legend is applicable only to US Government
 contracts under FAR:
  
                    RESTRICTED RIGHTS LEGEND
  
 Use, reproduction and disclosure by the US Government is
 subject to restrictions as set forth in subparagraphs (a)
 and (c) of the Commercial Computer Software - Restricted
 Rights clause in FAR 52.227-19.
  
 Gaussian, Inc.
 340 Quinnipiac St., Bldg. 40, Wallingford CT 06492
  
  
 ---------------------------------------------------------------
 Warning -- This program may not be used in any manner that
 competes with the business of Gaussian, Inc. or will provide
 assistance to any competitor of Gaussian, Inc.  The licensee
 of this program is prohibited from giving any competitor of
 Gaussian, Inc. access to this program.  By using this program,
 the user acknowledges that Gaussian, Inc. is engaged in the
 business of creating and licensing software in the field of
 computational chemistry and represents and warrants to the
 licensee that it is not a competitor of Gaussian, Inc. and that
 it will not use this program in any manner prohibited above.
 ---------------------------------------------------------------
  

 Cite this work as:
 Gaussian 16, Revision A.03,
 M. J. Frisch, G. W. Trucks, H. B. Schlegel, G. E. Scuseria, 
 M. A. Robb, J. R. Cheeseman, G. Scalmani, V. Barone, 
 G. A. Petersson, H. Nakatsuji, X. Li, M. Caricato, A. V. Marenich, 
 J. Bloino, B. G. Janesko, R. Gomperts, B. Mennucci, H. P. Hratchian, 
 J. V. Ortiz, A. F. Izmaylov, J. L. Sonnenberg, D. Williams-Young, 
 F. Ding, F. Lipparini, F. Egidi, J. Goings, B. Peng, A. Petrone, 
 T. Henderson, D. Ranasinghe, V. G. Zakrzewski, J. Gao, N. Rega, 
 G. Zheng, W. Liang, M. Hada, M. Ehara, K. Toyota, R. Fukuda, 
 J. Hasegawa, M. Ishida, T. Nakajima, Y. Honda, O. Kitao, H. Nakai, 
 T. Vreven, K. Throssell, J. A. Montgomery, Jr., J. E. Peralta, 
 F. Ogliaro, M. J. Bearpark, J. J. Heyd, E. N. Brothers, K. N. Kudin, 
 V. N. Staroverov, T. A. Keith, R. Kobayashi, J. Normand, 
 K. Raghavachari, A. P. Rendell, J. C. Burant, S. S. Iyengar, 
 J. Tomasi, M. Cossi, J. M. Millam, M. Klene, C. Adamo, R. Cammi, 
 J. W. Ochterski, R. L. Martin, K. Morokuma, O. Farkas, 
 J. B. Foresman, and D. J. Fox, Gaussian, Inc., Wallingford CT, 2016.
 
 ******************************************
 Gaussian 16:  ES64L-G16RevA.03 25-Dec-2016
                16-May-2022 
 ******************************************
 %nproc=16
 Will use up to   16 processors via shared memory.
 %mem=20GB
 ---------------------------------------------------
 #p M062X/6-311+G(2d,p) nosymm em=GD3 counterpoise=5
 ---------------------------------------------------
 1/38=1,62=5,172=1/1;
 2/12=2,15=1,17=6,18=5,40=1/2;
 1/38=1,53=2,62=5,63=1/22;
 3/5=4,6=6,7=112,11=2,25=1,30=1,74=-55,124=31/1,2,3;
 4//1;
 5/5=2,38=5/2;
 6/7=2,8=2,9=2,10=2,28=1/1;
 1/53=2,62=5,63=1/22;
 3/5=7,6=11,7=112,11=2,25=1,30=1,74=-55,82=7,124=31/1,2,3;
 4//1;
 5/5=2,38=5/2;
 6/7=2,8=2,9=2,10=2,28=1/1;
 1/53=2,62=5,63=1/22(-4);
 99/5=1,9=1/99;
 Leave Link    1 at Mon May 16 13:49:15 2022, MaxMem=  2684354560 cpu:               0.5 elap:               0.0
 (Enter /data0/hywu0/study/g16/l101.exe)
 -------------------
 Title Card Required
 -------------------
 Symbolic Z-matrix:
 Charge =  0 Multiplicity = 1 in supermolecule
 Charge =  0 Multiplicity = 1 in fragment      1.
 Charge =  0 Multiplicity = 1 in fragment      2.
 Charge =  0 Multiplicity = 1 in fragment      3.
 Charge =  0 Multiplicity = 1 in fragment      4.
 Charge =  0 Multiplicity = 1 in fragment      5.
 C                     2.63046   2.88106   6.36701    
 C                     3.48508   2.67389   7.45056    
 C                     4.14518   1.45905   7.60003    
 C                     3.96634   0.46389   6.62694    
 C                     3.13186   0.7185    5.53845    
 H                     4.80602   1.28475   8.45758    
 H                     2.09245   3.83553   6.23771    
 H                     3.66578   3.49668   8.15033    
 H                     3.03068  -0.00805   4.72358    
 C                     4.68718  -0.83139   6.69847    
 H                     4.01696  -1.69729   6.65925    
 H                     5.40227  -0.92383   5.85331    
 H                     5.30463  -0.92488   7.60609    
 N                     2.44906   1.89825   5.43873    
 C                     1.54091   2.13544   4.29006    
 H                     0.64298   1.49059   4.42635    
 H                     1.17553   3.19902   4.31984    
 C                     2.1749    1.86447   2.91031    
 H                     2.7154    0.89262   2.90631    
 H                     1.34505   1.73517   2.18055    
 C                     3.09356   2.97726   2.41563    
 H                     2.54588   3.93894   2.34774    
 H                     3.4408    2.76425   1.38834    
 S                     4.5175    3.18543   3.50212    
 O                     5.58448   3.89351   2.80092    
 O                     4.82783   1.80222   3.9559     
 O                     3.9258    4.00376   4.6234     
 P                     7.50602   1.95215   6.36157    
 O                     6.43302   2.56056   7.15923    
 O                     8.5489    2.90452   5.65264    
 H                     8.06969   3.78556   5.30959    
 O                     8.44769   1.0568    7.29181    
 H                     9.22156   0.711     6.70457    
 O                     7.06564   0.90009   5.2636     
 H                     6.2119    1.26302   4.75021    
 O                     7.32564   5.19703   4.70235    
 H                     6.64014   5.4087    5.35484    
 H                     6.8324    4.87019   3.92555    
 O                     1.62211   5.3876    4.43479    
 H                     2.51705   4.97872   4.50149    
 H                     1.76704   6.31889   4.55174    
 O                     5.17148   5.26109   6.71584    
 H                     5.63768   4.49537   7.0617     
 H                     4.65749   4.88987   5.97301    
 
 ITRead=  0  0  0  0  0  0  0  0  0  0  0  0  0  0  0  0  0  0  0  0
 ITRead=  0  0  0  0  0  0  0  0  0  0  0  0  0  0  0  0  0  0  0  0
 ITRead=  0  0  0  0
 MicOpt= -1 -1 -1 -1 -1 -1 -1 -1 -1 -1 -1 -1 -1 -1 -1 -1 -1 -1 -1 -1
 MicOpt= -1 -1 -1 -1 -1 -1 -1 -1 -1 -1 -1 -1 -1 -1 -1 -1 -1 -1 -1 -1
 MicOpt= -1 -1 -1 -1
 NAtoms=     44 NQM=       44 NQMF=       0 NMMI=      0 NMMIF=      0
                NMic=       0 NMicF=      0.
                    Isotopes and Nuclear Properties:
 (Nuclear quadrupole moments (NQMom) in fm**2, nuclear magnetic moments (NMagM)
  in nuclear magnetons)

  Atom         1           2           3           4           5           6           7           8           9          10
 IAtWgt=          12          12          12          12          12           1           1           1           1          12
 AtmWgt=  12.0000000  12.0000000  12.0000000  12.0000000  12.0000000   1.0078250   1.0078250   1.0078250   1.0078250  12.0000000
 NucSpn=           0           0           0           0           0           1           1           1           1           0
 AtZEff=  -0.0000000  -0.0000000  -0.0000000  -0.0000000  -0.0000000  -0.0000000  -0.0000000  -0.0000000  -0.0000000  -0.0000000
 NQMom=    0.0000000   0.0000000   0.0000000   0.0000000   0.0000000   0.0000000   0.0000000   0.0000000   0.0000000   0.0000000
 NMagM=    0.0000000   0.0000000   0.0000000   0.0000000   0.0000000   2.7928460   2.7928460   2.7928460   2.7928460   0.0000000
 AtZNuc=   6.0000000   6.0000000   6.0000000   6.0000000   6.0000000   1.0000000   1.0000000   1.0000000   1.0000000   6.0000000

  Atom        11          12          13          14          15          16          17          18          19          20
 IAtWgt=           1           1           1          14          12           1           1          12           1           1
 AtmWgt=   1.0078250   1.0078250   1.0078250  14.0030740  12.0000000   1.0078250   1.0078250  12.0000000   1.0078250   1.0078250
 NucSpn=           1           1           1           2           0           1           1           0           1           1
 AtZEff=  -0.0000000  -0.0000000  -0.0000000  -0.0000000  -0.0000000  -0.0000000  -0.0000000  -0.0000000  -0.0000000  -0.0000000
 NQMom=    0.0000000   0.0000000   0.0000000   2.0440000   0.0000000   0.0000000   0.0000000   0.0000000   0.0000000   0.0000000
 NMagM=    2.7928460   2.7928460   2.7928460   0.4037610   0.0000000   2.7928460   2.7928460   0.0000000   2.7928460   2.7928460
 AtZNuc=   1.0000000   1.0000000   1.0000000   7.0000000   6.0000000   1.0000000   1.0000000   6.0000000   1.0000000   1.0000000

  Atom        21          22          23          24          25          26          27          28          29          30
 IAtWgt=          12           1           1          32          16          16          16          31          16          16
 AtmWgt=  12.0000000   1.0078250   1.0078250  31.9720718  15.9949146  15.9949146  15.9949146  30.9737634  15.9949146  15.9949146
 NucSpn=           0           1           1           0           0           0           0           1           0           0
 AtZEff=  -0.0000000  -0.0000000  -0.0000000  -0.0000000  -0.0000000  -0.0000000  -0.0000000  -0.0000000  -0.0000000  -0.0000000
 NQMom=    0.0000000   0.0000000   0.0000000   0.0000000   0.0000000   0.0000000   0.0000000   0.0000000   0.0000000   0.0000000
 NMagM=    0.0000000   2.7928460   2.7928460   0.0000000   0.0000000   0.0000000   0.0000000   1.1316000   0.0000000   0.0000000
 AtZNuc=   6.0000000   1.0000000   1.0000000  16.0000000   8.0000000   8.0000000   8.0000000  15.0000000   8.0000000   8.0000000

  Atom        31          32          33          34          35          36          37          38          39          40
 IAtWgt=           1          16           1          16           1          16           1           1          16           1
 AtmWgt=   1.0078250  15.9949146   1.0078250  15.9949146   1.0078250  15.9949146   1.0078250   1.0078250  15.9949146   1.0078250
 NucSpn=           1           0           1           0           1           0           1           1           0           1
 AtZEff=  -0.0000000  -0.0000000  -0.0000000  -0.0000000  -0.0000000  -0.0000000  -0.0000000  -0.0000000  -0.0000000  -0.0000000
 NQMom=    0.0000000   0.0000000   0.0000000   0.0000000   0.0000000   0.0000000   0.0000000   0.0000000   0.0000000   0.0000000
 NMagM=    2.7928460   0.0000000   2.7928460   0.0000000   2.7928460   0.0000000   2.7928460   2.7928460   0.0000000   2.7928460
 AtZNuc=   1.0000000   8.0000000   1.0000000   8.0000000   1.0000000   8.0000000   1.0000000   1.0000000   8.0000000   1.0000000

  Atom        41          42          43          44
 IAtWgt=           1          16           1           1
 AtmWgt=   1.0078250  15.9949146   1.0078250   1.0078250
 NucSpn=           1           0           1           1
 AtZEff=  -0.0000000  -0.0000000  -0.0000000  -0.0000000
 NQMom=    0.0000000   0.0000000   0.0000000   0.0000000
 NMagM=    2.7928460   0.0000000   2.7928460   2.7928460
 AtZNuc=   1.0000000   8.0000000   1.0000000   1.0000000
 Leave Link  101 at Mon May 16 13:49:16 2022, MaxMem=  2684354560 cpu:               1.6 elap:               0.1
 (Enter /data0/hywu0/study/g16/l202.exe)
                          Input orientation:                          
 ---------------------------------------------------------------------
 Center     Atomic      Atomic             Coordinates (Angstroms)
 Number     Number       Type             X           Y           Z
 ---------------------------------------------------------------------
      1          6           0        2.630459    2.881059    6.367009
      2          6           0        3.485082    2.673888    7.450557
      3          6           0        4.145178    1.459054    7.600028
      4          6           0        3.966337    0.463891    6.626943
      5          6           0        3.131863    0.718504    5.538449
      6          1           0        4.806021    1.284753    8.457584
      7          1           0        2.092445    3.835525    6.237711
      8          1           0        3.665776    3.496683    8.150328
      9          1           0        3.030684   -0.008050    4.723575
     10          6           0        4.687182   -0.831386    6.698466
     11          1           0        4.016957   -1.697288    6.659255
     12          1           0        5.402271   -0.923832    5.853305
     13          1           0        5.304632   -0.924884    7.606092
     14          7           0        2.449057    1.898254    5.438727
     15          6           0        1.540905    2.135435    4.290060
     16          1           0        0.642976    1.490591    4.426351
     17          1           0        1.175528    3.199018    4.319835
     18          6           0        2.174903    1.864467    2.910311
     19          1           0        2.715399    0.892615    2.906310
     20          1           0        1.345051    1.735174    2.180554
     21          6           0        3.093557    2.977261    2.415635
     22          1           0        2.545876    3.938940    2.347744
     23          1           0        3.440801    2.764253    1.388336
     24         16           0        4.517498    3.185432    3.502121
     25          8           0        5.584478    3.893514    2.800918
     26          8           0        4.827834    1.802224    3.955898
     27          8           0        3.925800    4.003763    4.623400
     28         15           0        7.506023    1.952146    6.361570
     29          8           0        6.433021    2.560558    7.159227
     30          8           0        8.548905    2.904520    5.652637
     31          1           0        8.069686    3.785558    5.309589
     32          8           0        8.447687    1.056798    7.291810
     33          1           0        9.221560    0.710998    6.704566
     34          8           0        7.065642    0.900087    5.263603
     35          1           0        6.211901    1.263020    4.750205
     36          8           0        7.325639    5.197030    4.702345
     37          1           0        6.640141    5.408704    5.354843
     38          1           0        6.832397    4.870189    3.925554
     39          8           0        1.622113    5.387597    4.434789
     40          1           0        2.517049    4.978717    4.501485
     41          1           0        1.767039    6.318889    4.551736
     42          8           0        5.171482    5.261090    6.715839
     43          1           0        5.637678    4.495373    7.061700
     44          1           0        4.657491    4.889873    5.973007
 ---------------------------------------------------------------------
                    Distance matrix (angstroms):
                    1          2          3          4          5
     1  C    0.000000
     2  C    1.395484   0.000000
     3  C    2.415949   1.390644   0.000000
     4  C    2.773957   2.407080   1.403292   0.000000
     5  C    2.369507   2.757616   2.413572   1.394989   0.000000
     6  H    3.413468   2.165336   1.096584   2.174886   3.412447
     7  H    1.103260   2.181704   3.423045   3.876969   3.359342
     8  H    2.151999   1.095135   2.164391   3.407179   3.850358
     9  H    3.347836   3.851714   3.415915   2.172783   1.096420
    10  C    4.257020   3.781221   2.520456   1.484074   2.483307
    11  H    4.792603   4.473950   3.296057   2.162013   2.806359
    12  H    4.735402   4.378403   3.210836   2.141541   2.819779
    13  H    4.813702   4.035606   2.650949   2.162975   3.420058
    14  N    1.364009   2.392157   2.782255   2.402372   1.366740
    15  C    2.461057   3.749466   4.265632   3.760027   2.469274
    16  H    3.106388   4.315505   4.726377   4.115999   2.833274
    17  H    2.531569   3.925713   4.754573   4.537872   3.386033
    18  C    3.631770   4.794326   5.102920   4.357086   3.022600
    19  H    3.992188   4.941207   4.939242   3.948640   2.670564
    20  H    4.526779   5.764881   6.106362   5.315795   3.937229
    21  C    3.979582   5.059226   5.503525   4.981354   3.854273
    22  H    4.157013   5.340521   6.024458   5.692558   4.571125
    23  H    5.045541   6.063056   6.386299   5.745508   4.637237
    24  S    3.444001   4.113114   4.462269   4.180320   3.486022
    25  O    4.740074   5.245388   5.570425   5.386944   4.856963
    26  O    3.435957   3.843881   3.723368   3.109308   2.560319
    27  O    2.445106   3.155252   3.922242   4.067742   3.501511
    28  P    4.963268   4.227857   3.615549   3.848987   4.618731
    29  O    3.897410   2.964466   2.577177   3.280834   4.113117
    30  O    5.961450   5.378477   5.027377   5.282601   5.842606
    31  H    5.614396   5.180555   5.104948   5.441173   5.817327
    32  O    6.166306   5.221842   4.332250   4.569035   5.607736
    33  H    6.947354   6.108733   5.208752   5.261602   6.200346
    34  O    4.981225   4.555167   3.781592   3.413891   3.947547
    35  H    4.249568   4.088764   3.525800   3.033696   3.225595
    36  O    5.493591   5.354325   5.699506   6.114866   6.192255
    37  H    4.846753   4.671791   5.183187   5.763562   5.860009
    38  H    5.251059   5.334220   5.688475   5.909929   5.790671
    39  O    3.321591   4.464272   5.640749   5.877398   5.029696
    40  H    2.809486   3.866051   4.963849   5.196312   4.427494
    41  H    3.982384   4.963957   6.210123   6.589719   5.848133
    42  O    3.499004   3.174487   4.036158   4.947059   5.116774
    43  H    3.483098   2.846522   3.425870   4.385800   4.781646
    44  H    2.880873   2.910032   3.831472   4.527101   4.462813
                    6          7          8          9         10
     6  H    0.000000
     7  H    4.335639   0.000000
     8  H    2.507429   2.499658   0.000000
     9  H    4.331972   4.236268   4.942583   0.000000
    10  C    2.754390   5.359572   4.677965   2.705931   0.000000
    11  H    3.570599   5.873114   5.415160   2.751930   1.095685
    12  H    3.466357   5.809836   5.275669   2.781973   1.110944
    13  H    2.419948   5.903567   4.746820   3.784221   1.101713
    14  N    3.878809   2.125692   3.374635   2.117481   3.747943
    15  C    5.362173   2.643454   4.611913   2.646111   4.949900
    16  H    5.798634   3.298591   5.199012   2.834681   5.187455
    17  H    5.828023   2.219037   4.578495   3.726915   5.850962
    18  C    6.166935   3.868263   5.687232   2.743466   5.284817
    19  H    5.944839   4.488544   5.931620   2.052573   4.608748
    20  H    7.182082   4.629319   6.642807   3.513850   6.178074
    21  C    6.504019   4.043156   5.786531   3.773940   5.948788
    22  H    7.034423   3.917670   5.926192   4.632315   6.802204
    23  H    7.350307   5.146079   6.805263   4.356338   6.532960
    24  S    5.315302   3.713079   4.735835   3.728390   5.136170
    25  O    6.277699   4.899919   5.696936   5.043875   6.190372
    26  O    4.531383   4.101626   4.670633   2.663863   3.804913
    27  O    4.782130   2.448570   3.572669   4.111680   5.316415
    28  P    3.482628   5.733174   4.509185   5.153063   3.975854
    29  O    2.441421   4.616853   3.084843   4.909791   3.842595
    30  O    4.949803   6.549424   5.516708   6.308485   5.473907
    31  H    5.178360   6.049076   5.248587   6.334541   5.889523
    32  O    3.830499   7.015807   5.436613   6.088814   4.249552
    33  H    4.785316   7.797750   6.380988   6.539748   4.789527
    34  O    3.931332   5.856481   5.160870   4.170999   3.273210
    35  H    3.965051   5.079407   4.799254   3.425853   3.241454
    36  O    5.979649   5.621153   5.307953   6.748329   6.876609
    37  H    5.477040   4.892432   4.507484   6.539717   6.675185
    38  H    6.123794   5.374360   5.455522   6.235950   6.693201
    39  O    6.569131   2.425009   4.642989   5.583948   7.293465
    40  H    5.876690   2.121711   4.102445   5.018066   6.579780
    41  H    7.059291   3.019188   4.951759   6.454183   8.016366
    42  O    4.356431   3.426560   2.727277   6.026273   6.111719
    43  H    3.598364   3.699059   2.463918   5.704741   5.423075
    44  H    4.380876   2.785889   2.768610   5.310107   5.767146
                   11         12         13         14         15
    11  H    0.000000
    12  H    1.779574   0.000000
    13  H    1.775166   1.755505   0.000000
    14  N    4.108031   4.105791   4.563101   0.000000
    15  C    5.141370   5.168462   5.875990   1.483385   0.000000
    16  H    5.150940   5.524176   6.138103   2.110219   1.113856
    17  H    6.125391   6.100392   6.697429   2.136769   1.124987
    18  C    5.489430   5.181865   6.294922   2.543460   1.542428
    19  H    4.741967   4.382184   5.665279   2.737770   2.199728
    20  H    6.243368   6.084443   7.224310   3.443997   2.156057
    21  C    6.380626   5.689135   6.859769   3.273946   2.575436
    22  H    7.247087   6.640369   7.675789   3.705125   2.834641
    23  H    6.929639   6.114351   7.466196   4.259011   3.524914
    24  S    5.836008   4.816320   5.861472   3.112189   3.253221
    25  O    6.971438   5.705882   6.810651   4.557408   4.653909
    26  O    4.495803   3.370684   4.581307   2.804743   3.320632
    27  O    6.054337   5.289029   5.923613   2.697906   3.047866
    28  P    5.057723   3.599355   3.830438   5.140763   6.317229
    29  O    4.921035   3.861198   3.690699   4.389845   5.687323
    30  O    6.536702   4.959622   5.385687   6.185990   7.180541
    31  H    6.950382   5.439585   5.925176   5.930435   6.810824
    32  O    5.255139   3.907269   3.728891   6.334471   7.607733
    33  H    5.734962   4.240788   4.339491   6.991332   8.176266
    34  O    4.241307   2.537958   3.452380   4.726506   5.744266
    35  H    4.150382   2.579661   3.710276   3.877703   4.773997
    36  O    7.893573   6.518359   7.070647   5.933400   6.557933
    37  H    7.686202   6.471615   6.853178   5.467676   6.152257
    38  H    7.650593   6.271536   7.033015   5.507791   5.967548
    39  O    7.802507   7.492391   7.966525   3.723875   3.256394
    40  H    7.174590   6.707608   7.229226   3.220605   3.013604
    41  H    8.588531   8.207679   8.620667   4.560035   4.197725
    42  O    7.053733   6.249039   6.251124   4.511239   5.369843
    43  H    6.413872   5.557285   5.457698   4.421128   5.480406
    44  H    6.653714   5.862439   6.074303   3.756650   4.486908
                   16         17         18         19         20
    16  H    0.000000
    17  H    1.792674   0.000000
    18  C    2.187455   2.183239   0.000000
    19  H    2.638757   3.112676   1.112047   0.000000
    20  H    2.365657   2.597711   1.112617   1.764789   0.000000
    21  C    3.501216   2.711824   1.525431   2.174745   2.157618
    22  H    3.733102   2.512863   2.181179   3.101746   2.515257
    23  H    4.321987   3.730170   2.174516   2.516641   2.465518
    24  S    4.328811   3.440582   2.753714   2.976502   3.730175
    25  O    5.730141   4.714687   3.969156   4.153085   4.797502
    26  O    4.222733   3.927190   2.852222   2.528123   3.909747
    27  O    4.139057   2.881625   3.252215   3.754026   4.215953
    28  P    7.145594   6.767462   6.351356   6.000959   7.448862
    29  O    6.491384   6.009244   6.055526   5.889826   7.166302
    30  O    8.124450   7.498652   7.016407   6.754248   8.081970
    31  H    7.823235   6.989496   6.647977   6.543184   7.695171
    32  O    8.325416   8.142852   7.694003   7.219328   8.776820
    33  H    8.910114   8.753046   8.085928   7.535905   9.140843
    34  O    6.503870   6.392904   5.512471   4.947878   6.551925
    35  H    5.582974   5.412796   4.477086   3.970224   5.523791
    36  O    7.646689   6.477826   6.391200   6.558052   7.356039
    37  H    7.223551   5.984643   6.202879   6.464826   7.183934
    38  H    7.069753   5.911720   5.635365   5.814605   6.556242
    39  O    4.018138   2.236634   3.878409   4.872000   4.300992
    40  H    3.960406   2.236069   3.513894   4.390917   4.157027
    41  H    4.959002   3.183906   4.764715   5.749023   5.177936
    42  O    6.321850   5.095157   5.915960   6.295111   6.902352
    43  H    6.396939   5.395289   6.012197   6.227909   7.061935
    44  H    5.483028   4.209042   4.969550   5.399484   5.941976
                   21         22         23         24         25
    21  C    0.000000
    22  H    1.108779   0.000000
    23  H    1.105122   1.761035   0.000000
    24  S    1.803162   2.405754   2.409306   0.000000
    25  O    2.681912   3.072545   2.804634   1.459970   0.000000
    26  O    2.600161   3.515544   3.072741   1.488451   2.505989
    27  O    2.573045   2.662142   3.498178   1.508986   2.466740
    28  P    6.007589   6.682904   6.474458   4.316101   4.487704
    29  O    5.816126   6.337208   6.503695   4.175419   4.635909
    30  O    6.343839   6.930274   6.655574   4.577759   4.230631
    31  H    5.812932   6.269651   6.151899   4.030525   3.532894
    32  O    7.492127   8.220821   7.926873   5.859967   6.034321
    33  H    7.815580   8.600364   8.117594   6.205375   6.212507
    34  O    5.310653   6.177795   5.624258   3.849501   4.149611
    35  H    4.255926   5.135378   4.608130   2.850330   3.333598
    36  O    5.297824   5.474767   5.656238   3.656873   2.888983
    37  H    5.208562   5.288275   5.741261   3.589029   3.151628
    38  H    4.454431   4.661649   4.730261   2.894211   1.943194
    39  O    3.471577   2.703276   4.412532   3.755350   4.538960
    40  H    2.947704   2.391771   3.930504   2.866426   3.671337
    41  H    4.181992   3.335914   5.044206   4.299450   4.849809
    42  O    5.293902   5.265182   6.132841   3.881241   4.167426
    43  H    5.510275   5.664825   6.325354   3.954915   4.303409
    44  H    4.331151   4.301828   5.197865   3.004995   3.451693
                   26         27         28         29         30
    26  O    0.000000
    27  O    2.471032   0.000000
    28  P    3.603114   4.477540   0.000000
    29  O    3.662378   3.847001   1.468930   0.000000
    30  O    4.235605   4.862177   1.580255   2.620131   0.000000
    31  H    4.034315   4.205979   2.187642   2.756893   1.059981
    32  O    4.978685   6.021003   1.598038   2.517489   2.472086
    33  H    5.296299   6.574088   2.145032   3.376913   2.523996
    34  O    2.744399   4.461084   1.583128   2.598223   2.523721
    35  H    1.684430   3.571276   2.178565   2.745157   2.995078
    36  O    4.280294   3.604029   3.648950   3.712684   2.766774
    37  H    4.271791   3.142692   3.702843   3.377963   3.162752
    38  H    3.664915   3.112232   3.860430   3.993812   3.129388
    39  O    4.833310   2.693983   7.080622   6.209633   7.458503
    40  H    3.965791   1.717550   6.124533   5.314689   6.481569
    41  H    5.488511   3.166259   7.435044   6.534175   7.672262
    42  O    4.438369   2.740601   4.065058   3.013461   4.253329
    43  H    4.189857   3.019522   3.232476   2.094180   3.604374
    44  H    3.692062   1.772569   4.110396   3.159958   4.380339
                   31         32         33         34         35
    31  H    0.000000
    32  O    3.393850   0.000000
    33  H    3.567309   1.031170   0.000000
    34  O    3.055513   2.459315   2.600021   0.000000
    35  H    3.182369   3.391316   3.630744   1.060270   0.000000
    36  O    1.707221   5.010573   5.265728   4.341236   4.088904
    37  H    2.163388   5.094914   5.527560   4.529570   4.211374
    38  H    2.150084   5.336927   5.543454   4.196009   3.751897
    39  O    6.700970   8.573614   9.207283   7.103287   6.178817
    40  H    5.736588   7.638051   8.247270   6.156764   5.245970
    41  H    6.834871   8.934689   9.573557   7.612185   6.734835
    42  O    3.543208   5.361094   6.091518   4.971436   4.575014
    43  H    3.080324   4.446673   5.224294   4.265948   4.015077
    44  H    3.647288   5.549531   6.231284   4.713898   4.131041
                   36         37         38         39         40
    36  O    0.000000
    37  H    0.969777   0.000000
    38  H    0.976482   1.539425   0.000000
    39  O    5.712977   5.101720   5.260617   0.000000
    40  H    4.817732   4.232375   4.354963   0.986175   0.000000
    41  H    5.672679   5.022006   5.305534   0.949729   1.536588
    42  O    2.949348   2.007750   3.270647   4.221044   3.468301
    43  H    2.984643   2.180015   3.376870   4.880726   4.065298
    44  H    2.971185   2.140611   2.987083   3.439093   2.598993
                   41         42         43         44
    41  H    0.000000
    42  O    4.170433   0.000000
    43  H    4.960542   0.960875   0.000000
    44  H    3.523750   0.976621   1.517119   0.000000
 Symmetry turned off by external request.
 Stoichiometry    C9H22NO10PS
 Framework group  C1[X(C9H22NO10PS)]
 Deg. of freedom   126
 Full point group                 C1      NOp   1
 Rotational constants (GHZ):           0.3226344           0.2086179           0.1755678
 Leave Link  202 at Mon May 16 13:49:16 2022, MaxMem=  2684354560 cpu:               0.1 elap:               0.0
 (Enter /data0/hywu0/study/g16/l122.exe)
 Counterpoise: doing full-system calculation.
 Leave Link  122 at Mon May 16 13:49:16 2022, MaxMem=  2684354560 cpu:               0.0 elap:               0.0
 (Enter /data0/hywu0/study/g16/l301.exe)
 Standard basis: 6-311+G(2d,p) (5D, 7F)
 Ernie: Thresh=  0.10000D-02 Tol=  0.10000D-05 Strict=F.
   742 basis functions,  1128 primitive gaussians,   786 cartesian basis functions
    97 alpha electrons       97 beta electrons
       nuclear repulsion energy      2720.0847922050 Hartrees.
 IExCor= 4336 DFT=T Ex+Corr=M062X ExCW=0 ScaHFX=  0.540000
 ScaDFX=  1.000000  1.000000  1.000000  1.000000 ScalE2=  1.000000  1.000000
 IRadAn=      5 IRanWt=     -1 IRanGd=            0 ICorTp=0 IEmpDi=131
 NAtoms=   44 NActive=   44 NUniq=   44 SFac= 1.00D+00 NAtFMM=   60 NAOKFM=F Big=F
 Integral buffers will be    131072 words long.
 Raffenetti 2 integral format.
 Two-electron integral symmetry is turned off.
 R6Disp:  Grimme-D3 Dispersion energy=       -0.0043548523 Hartrees.
 Nuclear repulsion after empirical dispersion term =     2720.0804373527 Hartrees.
 Leave Link  301 at Mon May 16 13:49:16 2022, MaxMem=  2684354560 cpu:               0.8 elap:               0.1
 (Enter /data0/hywu0/study/g16/l302.exe)
 NPDir=0 NMtPBC=     1 NCelOv=     1 NCel=       1 NClECP=     1 NCelD=      1
         NCelK=      1 NCelE2=     1 NClLst=     1 CellRange=     0.0.
 One-electron integrals computed using PRISM.
 NBasis=   742 RedAO= T EigKep=  1.20D-06  NBF=   742
 NBsUse=   742 1.00D-06 EigRej= -1.00D+00 NBFU=   742
 Precomputing XC quadrature grid using
 IXCGrd= 4 IRadAn=           5 IRanWt=          -1 IRanGd=           0 AccXCQ= 0.00D+00.
 Generated NRdTot=       0 NPtTot=           0 NUsed=           0 NTot=          32
 NSgBfM=   781   780   780   780   781 MxSgAt=    44 MxSgA2=    44.
 Leave Link  302 at Mon May 16 13:49:17 2022, MaxMem=  2684354560 cpu:              15.9 elap:               1.0
 (Enter /data0/hywu0/study/g16/l303.exe)
 DipDrv:  MaxL=1.
 Leave Link  303 at Mon May 16 13:49:17 2022, MaxMem=  2684354560 cpu:               1.6 elap:               0.1
 (Enter /data0/hywu0/study/g16/l401.exe)
 ExpMin= 3.48D-02 ExpMax= 9.34D+04 ExpMxC= 3.17D+03 IAcc=3 IRadAn=         5 AccDes= 0.00D+00
 Harris functional with IExCor= 1009 and IRadAn=       5 diagonalized for initial guess.
 HarFok:  IExCor= 1009 AccDes= 0.00D+00 IRadAn=         5 IDoV= 1 UseB2=F ITyADJ=14
 ICtDFT=  3500011 ScaDFX=  1.000000  1.000000  1.000000  1.000000
 FoFCou: FMM=F IPFlag=           0 FMFlag=      100000 FMFlg1=           0
         NFxFlg=           0 DoJE=T BraDBF=F KetDBF=T FulRan=T
         wScrn=  0.000000 ICntrl=       500 IOpCl=  0 I1Cent=   200000004 NGrid=           0
         NMat0=    1 NMatS0=      1 NMatT0=    0 NMatD0=    1 NMtDS0=    0 NMtDT0=    0
 Symmetry not used in FoFCou.
 Harris En= -1902.08484835544    
 JPrj=0 DoOrth=F DoCkMO=F.
 Leave Link  401 at Mon May 16 13:49:22 2022, MaxMem=  2684354560 cpu:              76.2 elap:               4.8
 (Enter /data0/hywu0/study/g16/l502.exe)
 Two-electron integral symmetry not used.
 Closed shell SCF:
 Using DIIS extrapolation, IDIIS=  1040.
 NGot=  2684354560 LenX=  2683100926 LenY=  2682482344
 Requested convergence on RMS density matrix=1.00D-08 within 128 cycles.
 Requested convergence on MAX density matrix=1.00D-06.
 Requested convergence on             energy=1.00D-06.
 No special actions if energy rises.
 Fock matrices will be formed incrementally for  20 cycles.

 Cycle   1  Pass 1  IDiag  1:
 FoFJK:  IHMeth= 1 ICntrl=       0 DoSepK=F KAlg= 0 I1Cent=           0 FoldK=F
 IRaf= 830000000 NMat=       1 IRICut=       1 DoRegI=T DoRafI=F ISym2E= 0 IDoP0=0 IntGTp=1.
 FoFCou: FMM=F IPFlag=           0 FMFlag=      100000 FMFlg1=           0
         NFxFlg=           0 DoJE=F BraDBF=F KetDBF=F FulRan=T
         wScrn=  0.000000 ICntrl=         0 IOpCl=  0 I1Cent=           0 NGrid=           0
         NMat0=    1 NMatS0=      1 NMatT0=    0 NMatD0=    1 NMtDS0=    0 NMtDT0=    0
 Symmetry not used in FoFCou.
 E= -1901.87513884404    
 DIIS: error= 2.63D-02 at cycle   1 NSaved=   1.
 NSaved= 1 IEnMin= 1 EnMin= -1901.87513884404     IErMin= 1 ErrMin= 2.63D-02
 ErrMax= 2.63D-02  0.00D+00 EMaxC= 1.00D-01 BMatC= 1.55D+00 BMatP= 1.55D+00
 IDIUse=3 WtCom= 7.37D-01 WtEn= 2.63D-01
 Coeff-Com:  0.100D+01
 Coeff-En:   0.100D+01
 Coeff:      0.100D+01
 Gap=     0.238 Goal=   None    Shift=    0.000
 GapD=    0.238 DampG=1.000 DampE=0.500 DampFc=0.5000 IDamp=-1.
 Damping current iteration by 5.00D-01
 RMSDP=2.49D-02 MaxDP=7.10D+00              OVMax= 2.12D-01

 Cycle   2  Pass 1  IDiag  1:
 RMSU=  8.31D-03    CP:  1.24D+00
 E= -1902.27597065379     Delta-E=       -0.400831809759 Rises=F Damp=T
 DIIS: error= 5.06D-03 at cycle   2 NSaved=   2.
 NSaved= 2 IEnMin= 2 EnMin= -1902.27597065379     IErMin= 2 ErrMin= 5.06D-03
 ErrMax= 5.06D-03  0.00D+00 EMaxC= 1.00D-01 BMatC= 9.23D-02 BMatP= 1.55D+00
 IDIUse=3 WtCom= 9.49D-01 WtEn= 5.06D-02
 Coeff-Com:  0.415D-01 0.958D+00
 Coeff-En:   0.145D+00 0.855D+00
 Coeff:      0.467D-01 0.953D+00
 Gap=     0.337 Goal=   None    Shift=    0.000
 RMSDP=1.02D-02 MaxDP=2.65D+00 DE=-4.01D-01 OVMax= 1.76D-01

 Cycle   3  Pass 1  IDiag  1:
 RMSU=  3.63D-03    CP:  9.97D-01  8.16D-01
 E= -1902.77496843603     Delta-E=       -0.498997782233 Rises=F Damp=F
 DIIS: error= 4.09D-03 at cycle   3 NSaved=   3.
 NSaved= 3 IEnMin= 3 EnMin= -1902.77496843603     IErMin= 3 ErrMin= 4.09D-03
 ErrMax= 4.09D-03  0.00D+00 EMaxC= 1.00D-01 BMatC= 4.04D-02 BMatP= 9.23D-02
 IDIUse=3 WtCom= 9.59D-01 WtEn= 4.09D-02
 Coeff-Com: -0.400D-01 0.370D+00 0.670D+00
 Coeff-En:   0.000D+00 0.000D+00 0.100D+01
 Coeff:     -0.384D-01 0.355D+00 0.684D+00
 Gap=     0.267 Goal=   None    Shift=    0.000
 RMSDP=1.58D-03 MaxDP=3.03D-01 DE=-4.99D-01 OVMax= 5.70D-02

 Cycle   4  Pass 1  IDiag  1:
 RMSU=  1.30D-03    CP:  9.79D-01  8.01D-01  8.54D-01
 E= -1902.79839843410     Delta-E=       -0.023429998070 Rises=F Damp=F
 DIIS: error= 2.61D-03 at cycle   4 NSaved=   4.
 NSaved= 4 IEnMin= 4 EnMin= -1902.79839843410     IErMin= 4 ErrMin= 2.61D-03
 ErrMax= 2.61D-03  0.00D+00 EMaxC= 1.00D-01 BMatC= 1.28D-02 BMatP= 4.04D-02
 IDIUse=3 WtCom= 9.74D-01 WtEn= 2.61D-02
 Coeff-Com: -0.275D-01 0.833D-01 0.395D+00 0.549D+00
 Coeff-En:   0.000D+00 0.000D+00 0.247D+00 0.753D+00
 Coeff:     -0.268D-01 0.812D-01 0.391D+00 0.555D+00
 Gap=     0.268 Goal=   None    Shift=    0.000
 RMSDP=1.09D-03 MaxDP=3.06D-01 DE=-2.34D-02 OVMax= 2.61D-02

 Cycle   5  Pass 1  IDiag  1:
 RMSU=  3.27D-04    CP:  9.97D-01  8.55D-01  8.92D-01  5.37D-01
 E= -1902.80887700015     Delta-E=       -0.010478566049 Rises=F Damp=F
 DIIS: error= 3.72D-04 at cycle   5 NSaved=   5.
 NSaved= 5 IEnMin= 5 EnMin= -1902.80887700015     IErMin= 5 ErrMin= 3.72D-04
 ErrMax= 3.72D-04  0.00D+00 EMaxC= 1.00D-01 BMatC= 4.17D-04 BMatP= 1.28D-02
 IDIUse=3 WtCom= 9.96D-01 WtEn= 3.72D-03
 Coeff-Com: -0.904D-02 0.181D-01 0.137D+00 0.247D+00 0.606D+00
 Coeff-En:   0.000D+00 0.000D+00 0.000D+00 0.000D+00 0.100D+01
 Coeff:     -0.901D-02 0.180D-01 0.137D+00 0.246D+00 0.608D+00
 Gap=     0.268 Goal=   None    Shift=    0.000
 RMSDP=2.42D-04 MaxDP=7.94D-02 DE=-1.05D-02 OVMax= 4.99D-03

 Cycle   6  Pass 1  IDiag  1:
 RMSU=  8.58D-05    CP:  9.93D-01  8.43D-01  8.98D-01  6.01D-01  7.61D-01
 E= -1902.80922233661     Delta-E=       -0.000345336464 Rises=F Damp=F
 DIIS: error= 1.13D-04 at cycle   6 NSaved=   6.
 NSaved= 6 IEnMin= 6 EnMin= -1902.80922233661     IErMin= 6 ErrMin= 1.13D-04
 ErrMax= 1.13D-04  0.00D+00 EMaxC= 1.00D-01 BMatC= 3.84D-05 BMatP= 4.17D-04
 IDIUse=3 WtCom= 9.99D-01 WtEn= 1.13D-03
 Coeff-Com: -0.166D-02 0.923D-03 0.284D-01 0.633D-01 0.282D+00 0.627D+00
 Coeff-En:   0.000D+00 0.000D+00 0.000D+00 0.000D+00 0.000D+00 0.100D+01
 Coeff:     -0.166D-02 0.922D-03 0.284D-01 0.632D-01 0.282D+00 0.627D+00
 Gap=     0.268 Goal=   None    Shift=    0.000
 RMSDP=4.44D-05 MaxDP=7.94D-03 DE=-3.45D-04 OVMax= 1.08D-03

 Cycle   7  Pass 1  IDiag  1:
 RMSU=  3.04D-05    CP:  9.92D-01  8.42D-01  8.98D-01  5.99D-01  7.88D-01
                    CP:  8.89D-01
 E= -1902.80925156487     Delta-E=       -0.000029228262 Rises=F Damp=F
 DIIS: error= 2.98D-05 at cycle   7 NSaved=   7.
 NSaved= 7 IEnMin= 7 EnMin= -1902.80925156487     IErMin= 7 ErrMin= 2.98D-05
 ErrMax= 2.98D-05  0.00D+00 EMaxC= 1.00D-01 BMatC= 3.18D-06 BMatP= 3.84D-05
 IDIUse=1 WtCom= 1.00D+00 WtEn= 0.00D+00
 Coeff-Com:  0.240D-03-0.133D-02-0.222D-02 0.698D-03 0.655D-01 0.259D+00
 Coeff-Com:  0.678D+00
 Coeff:      0.240D-03-0.133D-02-0.222D-02 0.698D-03 0.655D-01 0.259D+00
 Coeff:      0.678D+00
 Gap=     0.268 Goal=   None    Shift=    0.000
 RMSDP=3.40D-05 MaxDP=7.94D-03 DE=-2.92D-05 OVMax= 3.25D-04

 Cycle   8  Pass 1  IDiag  1:
 RMSU=  1.09D-05    CP:  9.93D-01  8.44D-01  8.99D-01  5.98D-01  7.85D-01
                    CP:  9.52D-01  9.53D-01
 E= -1902.80925390984     Delta-E=       -0.000002344968 Rises=F Damp=F
 DIIS: error= 1.05D-05 at cycle   8 NSaved=   8.
 NSaved= 8 IEnMin= 8 EnMin= -1902.80925390984     IErMin= 8 ErrMin= 1.05D-05
 ErrMax= 1.05D-05  0.00D+00 EMaxC= 1.00D-01 BMatC= 4.78D-07 BMatP= 3.18D-06
 IDIUse=1 WtCom= 1.00D+00 WtEn= 0.00D+00
 Coeff-Com:  0.317D-03-0.677D-03-0.498D-02-0.884D-02-0.861D-02 0.152D-01
 Coeff-Com:  0.296D+00 0.711D+00
 Coeff:      0.317D-03-0.677D-03-0.498D-02-0.884D-02-0.861D-02 0.152D-01
 Coeff:      0.296D+00 0.711D+00
 Gap=     0.268 Goal=   None    Shift=    0.000
 RMSDP=1.85D-05 MaxDP=5.84D-03 DE=-2.34D-06 OVMax= 1.13D-04

 Cycle   9  Pass 1  IDiag  1:
 RMSU=  5.46D-06    CP:  9.92D-01  8.43D-01  8.99D-01  5.99D-01  7.95D-01
                    CP:  9.72D-01  9.75D-01  7.61D-01
 E= -1902.80925429523     Delta-E=       -0.000000385393 Rises=F Damp=F
 DIIS: error= 4.24D-06 at cycle   9 NSaved=   9.
 NSaved= 9 IEnMin= 9 EnMin= -1902.80925429523     IErMin= 9 ErrMin= 4.24D-06
 ErrMax= 4.24D-06  0.00D+00 EMaxC= 1.00D-01 BMatC= 5.71D-08 BMatP= 4.78D-07
 IDIUse=1 WtCom= 1.00D+00 WtEn= 0.00D+00
 Coeff-Com:  0.127D-03-0.211D-03-0.226D-02-0.446D-02-0.904D-02-0.145D-01
 Coeff-Com:  0.884D-01 0.340D+00 0.602D+00
 Coeff:      0.127D-03-0.211D-03-0.226D-02-0.446D-02-0.904D-02-0.145D-01
 Coeff:      0.884D-01 0.340D+00 0.602D+00
 Gap=     0.268 Goal=   None    Shift=    0.000
 RMSDP=2.99D-06 MaxDP=8.61D-04 DE=-3.85D-07 OVMax= 3.29D-05

 Cycle  10  Pass 1  IDiag  1:
 RMSU=  9.63D-07    CP:  9.92D-01  8.43D-01  9.00D-01  5.99D-01  7.94D-01
                    CP:  9.76D-01  9.98D-01  8.10D-01  8.80D-01
 E= -1902.80925434011     Delta-E=       -0.000000044874 Rises=F Damp=F
 DIIS: error= 1.38D-06 at cycle  10 NSaved=  10.
 NSaved=10 IEnMin=10 EnMin= -1902.80925434011     IErMin=10 ErrMin= 1.38D-06
 ErrMax= 1.38D-06  0.00D+00 EMaxC= 1.00D-01 BMatC= 5.28D-09 BMatP= 5.71D-08
 IDIUse=1 WtCom= 1.00D+00 WtEn= 0.00D+00
 Coeff-Com:  0.120D-04-0.392D-05-0.327D-03-0.795D-03-0.249D-02-0.825D-02
 Coeff-Com:  0.675D-03 0.521D-01 0.246D+00 0.713D+00
 Coeff:      0.120D-04-0.392D-05-0.327D-03-0.795D-03-0.249D-02-0.825D-02
 Coeff:      0.675D-03 0.521D-01 0.246D+00 0.713D+00
 Gap=     0.268 Goal=   None    Shift=    0.000
 RMSDP=5.17D-07 MaxDP=7.98D-05 DE=-4.49D-08 OVMax= 2.22D-05

 Cycle  11  Pass 1  IDiag  1:
 RMSU=  3.64D-07    CP:  9.92D-01  8.43D-01  9.00D-01  5.99D-01  7.94D-01
                    CP:  9.77D-01  1.00D+00  8.20D-01  9.10D-01  9.35D-01
 E= -1902.80925434523     Delta-E=       -0.000000005120 Rises=F Damp=F
 DIIS: error= 4.85D-07 at cycle  11 NSaved=  11.
 NSaved=11 IEnMin=11 EnMin= -1902.80925434523     IErMin=11 ErrMin= 4.85D-07
 ErrMax= 4.85D-07  0.00D+00 EMaxC= 1.00D-01 BMatC= 7.69D-10 BMatP= 5.28D-09
 IDIUse=1 WtCom= 1.00D+00 WtEn= 0.00D+00
 Coeff-Com: -0.131D-04 0.278D-04 0.199D-03 0.304D-03 0.248D-03-0.164D-02
 Coeff-Com: -0.134D-01-0.312D-01 0.513D-02 0.290D+00 0.750D+00
 Coeff:     -0.131D-04 0.278D-04 0.199D-03 0.304D-03 0.248D-03-0.164D-02
 Coeff:     -0.134D-01-0.312D-01 0.513D-02 0.290D+00 0.750D+00
 Gap=     0.268 Goal=   None    Shift=    0.000
 RMSDP=5.84D-07 MaxDP=1.81D-04 DE=-5.12D-09 OVMax= 1.09D-05

 Cycle  12  Pass 1  IDiag  1:
 RMSU=  1.34D-07    CP:  9.92D-01  8.43D-01  9.00D-01  5.99D-01  7.94D-01
                    CP:  9.78D-01  1.00D+00  8.20D-01  9.48D-01  1.02D+00
                    CP:  9.77D-01
 E= -1902.80925434580     Delta-E=       -0.000000000571 Rises=F Damp=F
 DIIS: error= 1.69D-07 at cycle  12 NSaved=  12.
 NSaved=12 IEnMin=12 EnMin= -1902.80925434580     IErMin=12 ErrMin= 1.69D-07
 ErrMax= 1.69D-07  0.00D+00 EMaxC= 1.00D-01 BMatC= 6.86D-11 BMatP= 7.69D-10
 IDIUse=1 WtCom= 1.00D+00 WtEn= 0.00D+00
 Coeff-Com: -0.453D-05 0.854D-05 0.958D-04 0.163D-03 0.328D-03 0.238D-03
 Coeff-Com: -0.417D-02-0.144D-01-0.215D-01 0.357D-01 0.265D+00 0.738D+00
 Coeff:     -0.453D-05 0.854D-05 0.958D-04 0.163D-03 0.328D-03 0.238D-03
 Coeff:     -0.417D-02-0.144D-01-0.215D-01 0.357D-01 0.265D+00 0.738D+00
 Gap=     0.268 Goal=   None    Shift=    0.000
 RMSDP=9.77D-08 MaxDP=2.50D-05 DE=-5.71D-10 OVMax= 4.72D-06

 Cycle  13  Pass 1  IDiag  1:
 RMSU=  4.50D-08    CP:  9.92D-01  8.43D-01  9.00D-01  5.99D-01  7.94D-01
                    CP:  9.77D-01  1.00D+00  8.20D-01  9.49D-01  1.03D+00
                    CP:  1.01D+00  1.00D+00
 E= -1902.80925434606     Delta-E=       -0.000000000260 Rises=F Damp=F
 DIIS: error= 8.72D-08 at cycle  13 NSaved=  13.
 NSaved=13 IEnMin=13 EnMin= -1902.80925434606     IErMin=13 ErrMin= 8.72D-08
 ErrMax= 8.72D-08  0.00D+00 EMaxC= 1.00D-01 BMatC= 1.35D-11 BMatP= 6.86D-11
 IDIUse=1 WtCom= 1.00D+00 WtEn= 0.00D+00
 Coeff-Com:  0.238D-06-0.953D-06 0.124D-04 0.225D-04 0.101D-03 0.321D-03
 Coeff-Com:  0.932D-04-0.152D-02-0.102D-01-0.292D-01-0.995D-02 0.311D+00
 Coeff-Com:  0.740D+00
 Coeff:      0.238D-06-0.953D-06 0.124D-04 0.225D-04 0.101D-03 0.321D-03
 Coeff:      0.932D-04-0.152D-02-0.102D-01-0.292D-01-0.995D-02 0.311D+00
 Coeff:      0.740D+00
 Gap=     0.268 Goal=   None    Shift=    0.000
 RMSDP=6.07D-08 MaxDP=1.39D-05 DE=-2.60D-10 OVMax= 2.44D-06

 Cycle  14  Pass 1  IDiag  1:
 RMSU=  2.17D-08    CP:  9.92D-01  8.43D-01  9.00D-01  5.99D-01  7.94D-01
                    CP:  9.77D-01  1.00D+00  8.20D-01  9.51D-01  1.03D+00
                    CP:  1.04D+00  1.11D+00  1.06D+00
 E= -1902.80925434622     Delta-E=       -0.000000000162 Rises=F Damp=F
 DIIS: error= 3.20D-08 at cycle  14 NSaved=  14.
 NSaved=14 IEnMin=14 EnMin= -1902.80925434622     IErMin=14 ErrMin= 3.20D-08
 ErrMax= 3.20D-08  0.00D+00 EMaxC= 1.00D-01 BMatC= 1.79D-12 BMatP= 1.35D-11
 IDIUse=1 WtCom= 1.00D+00 WtEn= 0.00D+00
 Coeff-Com:  0.795D-06-0.162D-05-0.879D-05-0.153D-04-0.638D-05 0.950D-04
 Coeff-Com:  0.677D-03 0.162D-02-0.784D-03-0.172D-01-0.455D-01 0.273D-01
 Coeff-Com:  0.311D+00 0.723D+00
 Coeff:      0.795D-06-0.162D-05-0.879D-05-0.153D-04-0.638D-05 0.950D-04
 Coeff:      0.677D-03 0.162D-02-0.784D-03-0.172D-01-0.455D-01 0.273D-01
 Coeff:      0.311D+00 0.723D+00
 Gap=     0.268 Goal=   None    Shift=    0.000
 RMSDP=2.05D-08 MaxDP=5.22D-06 DE=-1.62D-10 OVMax= 1.09D-06

 Cycle  15  Pass 1  IDiag  1:
 RMSU=  8.69D-09    CP:  9.92D-01  8.43D-01  9.00D-01  5.99D-01  7.94D-01
                    CP:  9.78D-01  1.00D+00  8.21D-01  9.51D-01  1.03D+00
                    CP:  1.04D+00  1.16D+00  1.22D+00  1.08D+00
 E= -1902.80925434604     Delta-E=        0.000000000179 Rises=F Damp=F
 DIIS: error= 1.27D-08 at cycle  15 NSaved=  15.
 NSaved=15 IEnMin=14 EnMin= -1902.80925434622     IErMin=15 ErrMin= 1.27D-08
 ErrMax= 1.27D-08  0.00D+00 EMaxC= 1.00D-01 BMatC= 3.00D-13 BMatP= 1.79D-12
 IDIUse=1 WtCom= 1.00D+00 WtEn= 0.00D+00
 Coeff-Com:  0.247D-06-0.493D-06-0.508D-05-0.872D-05-0.149D-04-0.543D-05
 Coeff-Com:  0.252D-03 0.845D-03 0.121D-02-0.265D-02-0.180D-01-0.387D-01
 Coeff-Com:  0.786D-02 0.309D+00 0.740D+00
 Coeff:      0.247D-06-0.493D-06-0.508D-05-0.872D-05-0.149D-04-0.543D-05
 Coeff:      0.252D-03 0.845D-03 0.121D-02-0.265D-02-0.180D-01-0.387D-01
 Coeff:      0.786D-02 0.309D+00 0.740D+00
 Gap=     0.268 Goal=   None    Shift=    0.000
 RMSDP=6.55D-09 MaxDP=1.70D-06 DE= 1.79D-10 OVMax= 4.45D-07

 Cycle  16  Pass 1  IDiag  1:
 RMSU=  3.25D-09    CP:  9.92D-01  8.43D-01  9.00D-01  5.99D-01  7.94D-01
                    CP:  9.78D-01  1.00D+00  8.21D-01  9.51D-01  1.03D+00
                    CP:  1.04D+00  1.17D+00  1.27D+00  1.21D+00  9.79D-01
 E= -1902.80925434599     Delta-E=        0.000000000055 Rises=F Damp=F
 DIIS: error= 4.50D-09 at cycle  16 NSaved=  16.
 NSaved=16 IEnMin=14 EnMin= -1902.80925434622     IErMin=16 ErrMin= 4.50D-09
 ErrMax= 4.50D-09  0.00D+00 EMaxC= 1.00D-01 BMatC= 3.12D-14 BMatP= 3.00D-13
 IDIUse=1 WtCom= 1.00D+00 WtEn= 0.00D+00
 Coeff-Com: -0.472D-07 0.972D-07-0.484D-06-0.873D-06-0.467D-05-0.181D-04
 Coeff-Com: -0.165D-04 0.549D-04 0.599D-03 0.185D-02 0.881D-03-0.178D-01
 Coeff-Com: -0.444D-01 0.551D-02 0.251D+00 0.802D+00
 Coeff:     -0.472D-07 0.972D-07-0.484D-06-0.873D-06-0.467D-05-0.181D-04
 Coeff:     -0.165D-04 0.549D-04 0.599D-03 0.185D-02 0.881D-03-0.178D-01
 Coeff:     -0.444D-01 0.551D-02 0.251D+00 0.802D+00
 Gap=     0.268 Goal=   None    Shift=    0.000
 RMSDP=2.32D-09 MaxDP=4.66D-07 DE= 5.55D-11 OVMax= 1.84D-07

 SCF Done:  E(RM062X) =  -1902.80925435     A.U. after   16 cycles
            NFock= 16  Conv=0.23D-08     -V/T= 2.0030
 KE= 1.897178095001D+03 PE=-9.929159304348D+03 EE= 3.409091517648D+03
 Leave Link  502 at Mon May 16 13:55:59 2022, MaxMem=  2684354560 cpu:            6336.5 elap:             397.1
 (Enter /data0/hywu0/study/g16/l601.exe)
 Copying SCF densities to generalized density rwf, IOpCl= 0 IROHF=0.

 **********************************************************************

            Population analysis using the SCF density.

 **********************************************************************

 Alpha  occ. eigenvalues --  -90.11563 -78.14405 -19.64931 -19.63564 -19.62838
 Alpha  occ. eigenvalues --  -19.62800 -19.62052 -19.62042 -19.61989 -19.61092
 Alpha  occ. eigenvalues --  -19.59434 -19.58404 -14.88069 -10.64429 -10.64195
 Alpha  occ. eigenvalues --  -10.63246 -10.60039 -10.59701 -10.59406 -10.59066
 Alpha  occ. eigenvalues --  -10.58549 -10.55848  -8.45036  -6.95122  -6.37315
 Alpha  occ. eigenvalues --   -6.37294  -6.37235  -5.07050  -5.06957  -5.06888
 Alpha  occ. eigenvalues --   -1.26034  -1.20700  -1.15756  -1.13552  -1.13158
 Alpha  occ. eigenvalues --   -1.12911  -1.12150  -1.11745  -1.11457  -1.10269
 Alpha  occ. eigenvalues --   -1.08534  -0.97982  -0.93779  -0.92115  -0.85442
 Alpha  occ. eigenvalues --   -0.83335  -0.78379  -0.74768  -0.72903  -0.70080
 Alpha  occ. eigenvalues --   -0.68789  -0.65059  -0.62704  -0.62131  -0.61544
 Alpha  occ. eigenvalues --   -0.61147  -0.60884  -0.59959  -0.59101  -0.58842
 Alpha  occ. eigenvalues --   -0.58423  -0.57036  -0.55906  -0.55431  -0.54848
 Alpha  occ. eigenvalues --   -0.53711  -0.53248  -0.51818  -0.50731  -0.50265
 Alpha  occ. eigenvalues --   -0.49533  -0.48970  -0.48389  -0.48174  -0.47790
 Alpha  occ. eigenvalues --   -0.46862  -0.46192  -0.46122  -0.45611  -0.45268
 Alpha  occ. eigenvalues --   -0.44487  -0.44083  -0.43593  -0.43080  -0.42932
 Alpha  occ. eigenvalues --   -0.40290  -0.40039  -0.39931  -0.39464  -0.38806
 Alpha  occ. eigenvalues --   -0.38393  -0.38227  -0.37732  -0.37532  -0.37064
 Alpha  occ. eigenvalues --   -0.35347  -0.32892
 Alpha virt. eigenvalues --   -0.06126  -0.02399  -0.01209   0.00367   0.00504
 Alpha virt. eigenvalues --    0.01118   0.01968   0.02557   0.02763   0.03233
 Alpha virt. eigenvalues --    0.04285   0.04859   0.05177   0.05654   0.05761
 Alpha virt. eigenvalues --    0.06262   0.07136   0.07598   0.07821   0.07887
 Alpha virt. eigenvalues --    0.08564   0.08930   0.09331   0.09913   0.10338
 Alpha virt. eigenvalues --    0.10651   0.10957   0.11008   0.11654   0.12109
 Alpha virt. eigenvalues --    0.12320   0.12572   0.13361   0.13686   0.14109
 Alpha virt. eigenvalues --    0.14168   0.14352   0.14468   0.15333   0.15422
 Alpha virt. eigenvalues --    0.15603   0.15779   0.16356   0.16399   0.16875
 Alpha virt. eigenvalues --    0.17024   0.17585   0.17752   0.18096   0.18717
 Alpha virt. eigenvalues --    0.18943   0.19446   0.19580   0.19737   0.20023
 Alpha virt. eigenvalues --    0.20364   0.20525   0.20812   0.21083   0.21344
 Alpha virt. eigenvalues --    0.21479   0.22037   0.22205   0.22548   0.22680
 Alpha virt. eigenvalues --    0.23389   0.23611   0.23703   0.24305   0.24342
 Alpha virt. eigenvalues --    0.25057   0.25510   0.25674   0.26055   0.26342
 Alpha virt. eigenvalues --    0.26671   0.26890   0.27120   0.27333   0.27875
 Alpha virt. eigenvalues --    0.27937   0.28693   0.28886   0.29382   0.29596
 Alpha virt. eigenvalues --    0.29902   0.30133   0.30545   0.30808   0.31002
 Alpha virt. eigenvalues --    0.31106   0.31443   0.31957   0.32414   0.32605
 Alpha virt. eigenvalues --    0.32860   0.33200   0.33689   0.34110   0.34419
 Alpha virt. eigenvalues --    0.34570   0.34829   0.35332   0.35510   0.35945
 Alpha virt. eigenvalues --    0.36426   0.36639   0.37170   0.37599   0.37910
 Alpha virt. eigenvalues --    0.38008   0.38406   0.38712   0.39111   0.39490
 Alpha virt. eigenvalues --    0.40225   0.40436   0.40763   0.41294   0.42064
 Alpha virt. eigenvalues --    0.42577   0.43383   0.44099   0.44314   0.45296
 Alpha virt. eigenvalues --    0.45912   0.46869   0.47839   0.47975   0.49012
 Alpha virt. eigenvalues --    0.49529   0.49956   0.50861   0.51167   0.51543
 Alpha virt. eigenvalues --    0.52231   0.53193   0.53508   0.54188   0.54930
 Alpha virt. eigenvalues --    0.55124   0.55957   0.56615   0.56793   0.57332
 Alpha virt. eigenvalues --    0.57775   0.58185   0.59006   0.59403   0.59760
 Alpha virt. eigenvalues --    0.60469   0.60750   0.61557   0.61842   0.62222
 Alpha virt. eigenvalues --    0.63228   0.63486   0.64114   0.64750   0.65178
 Alpha virt. eigenvalues --    0.65557   0.65813   0.66653   0.66757   0.67615
 Alpha virt. eigenvalues --    0.68204   0.68799   0.69239   0.69681   0.69779
 Alpha virt. eigenvalues --    0.70551   0.71466   0.71793   0.72149   0.72740
 Alpha virt. eigenvalues --    0.73686   0.73961   0.74926   0.75623   0.75950
 Alpha virt. eigenvalues --    0.76501   0.77100   0.77296   0.78416   0.78601
 Alpha virt. eigenvalues --    0.79371   0.80719   0.81302   0.82174   0.82244
 Alpha virt. eigenvalues --    0.83285   0.83457   0.84025   0.84912   0.85377
 Alpha virt. eigenvalues --    0.86372   0.86896   0.87386   0.88474   0.88807
 Alpha virt. eigenvalues --    0.89495   0.89820   0.90986   0.91767   0.92232
 Alpha virt. eigenvalues --    0.93854   0.94093   0.94667   0.95729   0.96321
 Alpha virt. eigenvalues --    0.97640   0.98508   1.00076   1.00983   1.01630
 Alpha virt. eigenvalues --    1.03104   1.04800   1.05466   1.06404   1.07170
 Alpha virt. eigenvalues --    1.07356   1.08342   1.09316   1.10321   1.10821
 Alpha virt. eigenvalues --    1.11846   1.12519   1.13710   1.14288   1.15040
 Alpha virt. eigenvalues --    1.15509   1.15928   1.16261   1.17126   1.18109
 Alpha virt. eigenvalues --    1.18650   1.19194   1.19298   1.20251   1.20416
 Alpha virt. eigenvalues --    1.21049   1.21084   1.21499   1.22853   1.23389
 Alpha virt. eigenvalues --    1.23790   1.24174   1.25655   1.25928   1.26710
 Alpha virt. eigenvalues --    1.27263   1.27656   1.28043   1.28637   1.29129
 Alpha virt. eigenvalues --    1.29866   1.30453   1.31510   1.32236   1.32790
 Alpha virt. eigenvalues --    1.32962   1.33627   1.33692   1.34091   1.34814
 Alpha virt. eigenvalues --    1.35212   1.36355   1.36493   1.36796   1.37155
 Alpha virt. eigenvalues --    1.37627   1.38379   1.38686   1.39623   1.40344
 Alpha virt. eigenvalues --    1.40728   1.41118   1.41392   1.42126   1.42961
 Alpha virt. eigenvalues --    1.43484   1.44295   1.44571   1.45100   1.45634
 Alpha virt. eigenvalues --    1.45653   1.46453   1.47334   1.47937   1.49358
 Alpha virt. eigenvalues --    1.49838   1.50605   1.51572   1.53181   1.54058
 Alpha virt. eigenvalues --    1.54622   1.54826   1.56517   1.56860   1.57526
 Alpha virt. eigenvalues --    1.58110   1.59500   1.59843   1.60557   1.60797
 Alpha virt. eigenvalues --    1.61929   1.62587   1.62937   1.63587   1.64580
 Alpha virt. eigenvalues --    1.65210   1.65570   1.66852   1.68094   1.69033
 Alpha virt. eigenvalues --    1.69641   1.70305   1.70864   1.73896   1.74757
 Alpha virt. eigenvalues --    1.75184   1.75301   1.76242   1.76669   1.77291
 Alpha virt. eigenvalues --    1.77503   1.78760   1.80235   1.80551   1.82061
 Alpha virt. eigenvalues --    1.82397   1.83607   1.84000   1.85046   1.85862
 Alpha virt. eigenvalues --    1.86206   1.87494   1.87777   1.89902   1.90468
 Alpha virt. eigenvalues --    1.91600   1.92010   1.92608   1.93853   1.94555
 Alpha virt. eigenvalues --    1.95463   1.95738   1.96634   1.97857   1.98668
 Alpha virt. eigenvalues --    1.99113   1.99999   2.01190   2.01377   2.02501
 Alpha virt. eigenvalues --    2.03560   2.04934   2.05117   2.06949   2.08093
 Alpha virt. eigenvalues --    2.09512   2.10732   2.11069   2.11718   2.12168
 Alpha virt. eigenvalues --    2.13016   2.14548   2.14886   2.15177   2.16646
 Alpha virt. eigenvalues --    2.17419   2.17869   2.18724   2.20098   2.20380
 Alpha virt. eigenvalues --    2.20978   2.21332   2.23143   2.23277   2.24715
 Alpha virt. eigenvalues --    2.25305   2.27043   2.28543   2.29160   2.30120
 Alpha virt. eigenvalues --    2.31148   2.31757   2.32012   2.33457   2.34154
 Alpha virt. eigenvalues --    2.35706   2.36092   2.37552   2.37741   2.38858
 Alpha virt. eigenvalues --    2.39570   2.40241   2.41427   2.42095   2.43462
 Alpha virt. eigenvalues --    2.44507   2.45414   2.45841   2.48199   2.50280
 Alpha virt. eigenvalues --    2.51363   2.52937   2.53304   2.55294   2.55806
 Alpha virt. eigenvalues --    2.58552   2.58920   2.60011   2.61116   2.65425
 Alpha virt. eigenvalues --    2.66098   2.66620   2.68570   2.71403   2.72021
 Alpha virt. eigenvalues --    2.72482   2.73204   2.74040   2.75635   2.75838
 Alpha virt. eigenvalues --    2.78626   2.78838   2.79058   2.80021   2.81510
 Alpha virt. eigenvalues --    2.81824   2.83964   2.85156   2.86311   2.87808
 Alpha virt. eigenvalues --    2.88581   2.89849   2.90148   2.90813   2.92840
 Alpha virt. eigenvalues --    2.93598   2.94138   2.95725   2.97395   2.98773
 Alpha virt. eigenvalues --    2.99659   3.00284   3.00958   3.01772   3.05173
 Alpha virt. eigenvalues --    3.05549   3.06967   3.07049   3.10060   3.11903
 Alpha virt. eigenvalues --    3.12713   3.14532   3.15480   3.17093   3.19655
 Alpha virt. eigenvalues --    3.20988   3.22875   3.23539   3.26577   3.27718
 Alpha virt. eigenvalues --    3.28519   3.30271   3.30957   3.32740   3.33541
 Alpha virt. eigenvalues --    3.34780   3.35195   3.36754   3.38587   3.41160
 Alpha virt. eigenvalues --    3.43412   3.44731   3.45429   3.47667   3.48053
 Alpha virt. eigenvalues --    3.49027   3.51077   3.51613   3.52857   3.54603
 Alpha virt. eigenvalues --    3.55866   3.56420   3.58470   3.59025   3.59824
 Alpha virt. eigenvalues --    3.61514   3.62722   3.63461   3.65320   3.66123
 Alpha virt. eigenvalues --    3.68351   3.68863   3.69475   3.72208   3.72872
 Alpha virt. eigenvalues --    3.74219   3.76430   3.78036   3.80253   3.84287
 Alpha virt. eigenvalues --    3.84821   3.87109   3.87553   3.89947   3.94677
 Alpha virt. eigenvalues --    3.96651   4.00398   4.03636   4.07774   4.09947
 Alpha virt. eigenvalues --    4.15149   4.16466   4.16811   4.19441   4.20223
 Alpha virt. eigenvalues --    4.23345   4.31811   4.35903   4.46470   4.53215
 Alpha virt. eigenvalues --    4.64899   4.72590   4.97091   5.05255   5.06337
 Alpha virt. eigenvalues --    5.12509   5.13357   5.13693   5.15442   5.17961
 Alpha virt. eigenvalues --    5.19586   5.20034   5.20403   5.22488   5.25466
 Alpha virt. eigenvalues --    5.27161   5.28578   5.29132   5.33137   5.34496
 Alpha virt. eigenvalues --    5.37630   5.39193   5.40574   5.44471   5.47389
 Alpha virt. eigenvalues --    5.48459   5.53356   5.54209   5.56995   5.57204
 Alpha virt. eigenvalues --    5.57896   5.60605   5.62378   5.65086   5.66077
 Alpha virt. eigenvalues --    5.68331   5.78192   5.98222   6.00024   6.03193
 Alpha virt. eigenvalues --    6.77201   6.77279   6.78525   6.78879   6.79586
 Alpha virt. eigenvalues --    6.80575   6.80884   6.82097   6.82637   6.83936
 Alpha virt. eigenvalues --    6.84507   6.85144   6.86137   6.86624   6.87357
 Alpha virt. eigenvalues --    6.87998   6.88590   6.89762   6.89977   6.90647
 Alpha virt. eigenvalues --    6.92836   6.94366   6.94720   6.95759   6.96067
 Alpha virt. eigenvalues --    6.96867   6.97939   6.98793   7.00177   7.02864
 Alpha virt. eigenvalues --    7.03626   7.04363   7.07739   7.11216   7.12802
 Alpha virt. eigenvalues --    7.13522   7.16612   7.18744   7.20116   7.20554
 Alpha virt. eigenvalues --    7.24067   7.27206   7.28195   7.29926   7.30260
 Alpha virt. eigenvalues --    7.36214   7.39677   7.41476   7.41884   7.46963
 Alpha virt. eigenvalues --    7.73348   8.64185  14.30644  14.33287  14.43204
 Alpha virt. eigenvalues --   17.75458  17.77853  17.86306  23.87352  23.95306
 Alpha virt. eigenvalues --   23.99053  24.00404  24.04669  24.09079  24.12059
 Alpha virt. eigenvalues --   24.13191  24.26752  35.71296  50.05288  50.05400
 Alpha virt. eigenvalues --   50.06862  50.08190  50.09250  50.10171  50.11123
 Alpha virt. eigenvalues --   50.14821  50.15531  50.19927 163.99832 189.96104
          Condensed to atoms (all electrons):
               1          2          3          4          5          6
     1  C   13.767703 -10.706638   6.066330  -4.679051   1.432202  -0.014750
     2  C  -10.706638  24.563199 -12.374635   9.164926  -4.699168   0.072115
     3  C    6.066330 -12.374635  20.866629 -11.316967   3.701882   0.290208
     4  C   -4.679051   9.164926 -11.316967  21.261416  -9.445377   0.041273
     5  C    1.432202  -4.699168   3.701882  -9.445377  16.304987  -0.007307
     6  H   -0.014750   0.072115   0.290208   0.041273  -0.007307   0.479582
     7  H    0.328324   0.031517   0.003778   0.013789  -0.005889  -0.000246
     8  H    0.169195   0.068512   0.141770  -0.073134   0.022830  -0.004598
     9  H   -0.021333   0.048489  -0.053527   0.198336   0.160231  -0.000060
    10  C    0.013606   0.367095  -0.952577   0.846096  -1.191133  -0.020130
    11  H    0.005633  -0.016510   0.088305  -0.100810  -0.007020  -0.000169
    12  H   -0.004626   0.004020  -0.069012   0.083460  -0.024158   0.000377
    13  H    0.009112   0.014805   0.041918  -0.200472   0.069448   0.003372
    14  N   -0.121508   0.058722  -0.172327  -0.159864   0.152734  -0.001627
    15  C    0.227760  -0.833533   0.550668  -0.915873   0.570461  -0.002024
    16  H   -0.001918   0.003521   0.002328   0.023590  -0.022795   0.000001
    17  H    0.001767   0.037109  -0.004797   0.013457  -0.033567  -0.000003
    18  C   -0.074415   0.222164  -0.277362   0.449854  -0.581841   0.000315
    19  H    0.005028   0.000140  -0.003588  -0.006205  -0.019353  -0.000001
    20  H   -0.001891   0.002961  -0.001038  -0.003329   0.010976   0.000000
    21  C    0.204853  -0.397047   0.260149  -0.491955   0.728493  -0.000254
    22  H    0.006873   0.004860  -0.003040   0.004288  -0.015794   0.000000
    23  H   -0.003280   0.003663  -0.001912   0.004145  -0.002735   0.000000
    24  S   -0.353382   0.697869  -0.447891   0.746395  -0.835763   0.000852
    25  O    0.023225  -0.022151   0.017148   0.039538  -0.023733   0.000008
    26  O   -0.054635   0.166416  -0.134186   0.180419  -0.159701   0.000109
    27  O   -0.046493  -0.067199  -0.001879   0.023882  -0.067480  -0.000227
    28  P    0.067035  -0.026724  -0.060296   0.086557  -0.052037   0.004696
    29  O   -0.070032   0.012627  -0.026836  -0.022470   0.056691  -0.019440
    30  O   -0.022080   0.033031  -0.032822   0.016335   0.000596   0.000140
    31  H    0.003376  -0.003021   0.011185  -0.004166  -0.003568  -0.000052
    32  O    0.005343  -0.007885  -0.008438   0.029032  -0.007383  -0.000135
    33  H    0.000080   0.000328  -0.006219   0.005700  -0.001407   0.000103
    34  O    0.037634  -0.050437   0.053976  -0.058158  -0.033615  -0.001531
    35  H   -0.026926   0.036025  -0.097930   0.097618   0.011094   0.000593
    36  O   -0.030306   0.018612  -0.024039   0.016161   0.000627   0.000054
    37  H    0.030129  -0.035020   0.018224  -0.004968  -0.001616  -0.000023
    38  H    0.006680   0.000867   0.001788  -0.001828  -0.000361  -0.000003
    39  O    0.072020  -0.099757  -0.008905   0.005140  -0.004105   0.000007
    40  H    0.063939  -0.079553   0.015495  -0.015913   0.014719  -0.000010
    41  H    0.020367  -0.012301   0.000359  -0.000494   0.000472   0.000000
    42  O   -0.187819   0.271511  -0.118181  -0.007226   0.014956   0.000128
    43  H    0.011719   0.015309  -0.000414   0.003728  -0.007458  -0.000001
    44  H    0.028951  -0.038579   0.044269  -0.006995   0.011318  -0.000080
               7          8          9         10         11         12
     1  C    0.328324   0.169195  -0.021333   0.013606   0.005633  -0.004626
     2  C    0.031517   0.068512   0.048489   0.367095  -0.016510   0.004020
     3  C    0.003778   0.141770  -0.053527  -0.952577   0.088305  -0.069012
     4  C    0.013789  -0.073134   0.198336   0.846096  -0.100810   0.083460
     5  C   -0.005889   0.022830   0.160231  -1.191133  -0.007020  -0.024158
     6  H   -0.000246  -0.004598  -0.000060  -0.020130  -0.000169   0.000377
     7  H    0.458082  -0.002722  -0.000088   0.000609  -0.000000   0.000003
     8  H   -0.002722   0.478499  -0.000047   0.000808   0.000013   0.000001
     9  H   -0.000088  -0.000047   0.491063   0.031815   0.000995   0.000134
    10  C    0.000609   0.000808   0.031815   6.553993   0.383001   0.381475
    11  H   -0.000000   0.000013   0.000995   0.383001   0.504169  -0.031361
    12  H    0.000003   0.000001   0.000134   0.381475  -0.031361   0.458304
    13  H   -0.000004  -0.000012  -0.000277   0.430086  -0.017733  -0.020258
    14  N   -0.043768   0.004758  -0.042468  -0.026187   0.003240  -0.000074
    15  C   -0.000617   0.006691   0.009143  -0.104876   0.001575   0.000007
    16  H    0.000961   0.000003   0.001095  -0.001059  -0.000026   0.000003
    17  H    0.004811  -0.000115   0.000266   0.000899  -0.000001   0.000000
    18  C   -0.000782  -0.000235   0.005624   0.075785   0.000383  -0.001074
    19  H    0.000042  -0.000002   0.004815   0.002348   0.000033   0.000006
    20  H   -0.000044  -0.000000  -0.000566  -0.000392  -0.000001   0.000000
    21  C   -0.004846   0.001371  -0.014687  -0.033222  -0.000128   0.000939
    22  H    0.000192  -0.000004   0.000098   0.000283  -0.000000   0.000000
    23  H    0.000012  -0.000001   0.000092   0.000183  -0.000000  -0.000001
    24  S   -0.000085  -0.003089   0.013499   0.023754  -0.000140  -0.001353
    25  O   -0.000458   0.000104   0.000148   0.000100  -0.000002  -0.000094
    26  O    0.002118  -0.001093  -0.005880  -0.009487  -0.000290   0.001140
    27  O    0.001806  -0.000804   0.001228   0.010256   0.000005   0.000016
    28  P   -0.000602  -0.000591   0.000521  -0.013802   0.002119  -0.006320
    29  O    0.000503  -0.001007  -0.000054   0.008102  -0.000125  -0.000606
    30  O    0.000015  -0.000023  -0.000013   0.000151  -0.000000   0.000188
    31  H   -0.000005   0.000014   0.000003   0.000081   0.000000  -0.000023
    32  O   -0.000005  -0.000006   0.000010  -0.003019  -0.000036   0.000355
    33  H   -0.000000  -0.000001  -0.000001   0.001311  -0.000007   0.000030
    34  O    0.000003   0.000133   0.000487   0.037471   0.000858  -0.006073
    35  H    0.000019  -0.000084  -0.000738  -0.002259  -0.000108   0.002542
    36  O    0.000106  -0.000294  -0.000004   0.000959  -0.000000   0.000011
    37  H   -0.000072   0.000476   0.000000  -0.000091  -0.000000  -0.000002
    38  H   -0.000023   0.000007   0.000001  -0.000216   0.000000  -0.000002
    39  O    0.003773   0.000554  -0.000021   0.000438  -0.000000   0.000000
    40  H   -0.007784   0.000289  -0.000046  -0.000370   0.000000  -0.000000
    41  H   -0.002266   0.000021  -0.000000  -0.000019   0.000000  -0.000000
    42  O   -0.000096  -0.022226  -0.000008  -0.001151  -0.000001   0.000034
    43  H   -0.000307   0.001307   0.000006  -0.000450   0.000001  -0.000015
    44  H   -0.000044   0.003488  -0.000034   0.000028   0.000000  -0.000006
              13         14         15         16         17         18
     1  C    0.009112  -0.121508   0.227760  -0.001918   0.001767  -0.074415
     2  C    0.014805   0.058722  -0.833533   0.003521   0.037109   0.222164
     3  C    0.041918  -0.172327   0.550668   0.002328  -0.004797  -0.277362
     4  C   -0.200472  -0.159864  -0.915873   0.023590   0.013457   0.449854
     5  C    0.069448   0.152734   0.570461  -0.022795  -0.033567  -0.581841
     6  H    0.003372  -0.001627  -0.002024   0.000001  -0.000003   0.000315
     7  H   -0.000004  -0.043768  -0.000617   0.000961   0.004811  -0.000782
     8  H   -0.000012   0.004758   0.006691   0.000003  -0.000115  -0.000235
     9  H   -0.000277  -0.042468   0.009143   0.001095   0.000266   0.005624
    10  C    0.430086  -0.026187  -0.104876  -0.001059   0.000899   0.075785
    11  H   -0.017733   0.003240   0.001575  -0.000026  -0.000001   0.000383
    12  H   -0.020258  -0.000074   0.000007   0.000003   0.000000  -0.001074
    13  H    0.488844  -0.000524   0.001348  -0.000001  -0.000001  -0.000284
    14  N   -0.000524   6.884897   0.138720  -0.056255  -0.061582   0.146328
    15  C    0.001348   0.138720   6.575114   0.432545   0.427702  -0.610516
    16  H   -0.000001  -0.056255   0.432545   0.491617  -0.020570  -0.041922
    17  H   -0.000001  -0.061582   0.427702  -0.020570   0.400903  -0.018933
    18  C   -0.000284   0.146328  -0.610516  -0.041922  -0.018933   6.638795
    19  H   -0.000000  -0.012200  -0.009348  -0.002929   0.003206   0.437151
    20  H   -0.000000   0.001244  -0.028372  -0.005781  -0.002327   0.409152
    21  C    0.000158  -0.022049  -0.007879  -0.001662  -0.017610  -0.515208
    22  H   -0.000000  -0.004474  -0.003774  -0.000052   0.001756  -0.007150
    23  H   -0.000000   0.003601   0.006308  -0.000014  -0.000017  -0.048127
    24  S   -0.000421  -0.094834   0.006995   0.006459  -0.001209   0.002104
    25  O   -0.000004  -0.048071   0.003842  -0.000031   0.000009  -0.087985
    26  O   -0.000080   0.009076  -0.034119   0.001272   0.000091   0.072035
    27  O   -0.000055  -0.047484   0.012776   0.000807   0.007369   0.067755
    28  P    0.000552  -0.001786  -0.003584  -0.000034  -0.000093  -0.000608
    29  O   -0.001501   0.001658   0.001969   0.000006  -0.000016   0.001014
    30  O   -0.000000   0.001488   0.001179   0.000000   0.000000   0.000252
    31  H    0.000002  -0.001262  -0.001168   0.000000   0.000001   0.000421
    32  O    0.000348  -0.000111   0.000033  -0.000000  -0.000000  -0.000132
    33  H   -0.000010   0.000016   0.000022  -0.000000  -0.000000  -0.000023
    34  O   -0.002030  -0.006568   0.002911   0.000010  -0.000002  -0.007964
    35  H   -0.000344   0.008094   0.001219  -0.000017   0.000002   0.008586
    36  O   -0.000003   0.006573   0.010533  -0.000001  -0.000027  -0.004068
    37  H    0.000000  -0.002285  -0.003198   0.000000   0.000006   0.000939
    38  H    0.000000  -0.001268  -0.004560   0.000000   0.000009   0.003019
    39  O    0.000000   0.008013  -0.011668   0.000559   0.010889   0.036320
    40  H   -0.000000   0.023135   0.032008  -0.000022  -0.005919  -0.035666
    41  H    0.000000  -0.001940   0.006201  -0.000000  -0.000762  -0.007632
    42  O    0.000003   0.016094   0.014901   0.000007  -0.000169  -0.004303
    43  H    0.000002  -0.008699  -0.002813  -0.000000   0.000010  -0.000332
    44  H   -0.000003  -0.005047  -0.007430  -0.000028   0.000477  -0.001461
              19         20         21         22         23         24
     1  C    0.005028  -0.001891   0.204853   0.006873  -0.003280  -0.353382
     2  C    0.000140   0.002961  -0.397047   0.004860   0.003663   0.697869
     3  C   -0.003588  -0.001038   0.260149  -0.003040  -0.001912  -0.447891
     4  C   -0.006205  -0.003329  -0.491955   0.004288   0.004145   0.746395
     5  C   -0.019353   0.010976   0.728493  -0.015794  -0.002735  -0.835763
     6  H   -0.000001   0.000000  -0.000254   0.000000   0.000000   0.000852
     7  H    0.000042  -0.000044  -0.004846   0.000192   0.000012  -0.000085
     8  H   -0.000002  -0.000000   0.001371  -0.000004  -0.000001  -0.003089
     9  H    0.004815  -0.000566  -0.014687   0.000098   0.000092   0.013499
    10  C    0.002348  -0.000392  -0.033222   0.000283   0.000183   0.023754
    11  H    0.000033  -0.000001  -0.000128  -0.000000  -0.000000  -0.000140
    12  H    0.000006   0.000000   0.000939   0.000000  -0.000001  -0.001353
    13  H   -0.000000  -0.000000   0.000158  -0.000000  -0.000000  -0.000421
    14  N   -0.012200   0.001244  -0.022049  -0.004474   0.003601  -0.094834
    15  C   -0.009348  -0.028372  -0.007879  -0.003774   0.006308   0.006995
    16  H   -0.002929  -0.005781  -0.001662  -0.000052  -0.000014   0.006459
    17  H    0.003206  -0.002327  -0.017610   0.001756  -0.000017  -0.001209
    18  C    0.437151   0.409152  -0.515208  -0.007150  -0.048127   0.002104
    19  H    0.500187  -0.029532  -0.046201   0.004229  -0.005506   0.009955
    20  H   -0.029532   0.503002  -0.029853  -0.004982  -0.004407   0.000050
    21  C   -0.046201  -0.029853   7.419415   0.420069   0.399971  -0.824223
    22  H    0.004229  -0.004982   0.420069   0.423379  -0.022641  -0.067750
    23  H   -0.005506  -0.004407   0.399971  -0.022641   0.460240  -0.026373
    24  S    0.009955   0.000050  -0.824223  -0.067750  -0.026373  15.270941
    25  O    0.000612  -0.000088  -0.086766   0.000077   0.006643   0.483972
    26  O   -0.010801   0.000856  -0.259455  -0.002678   0.011711   0.186273
    27  O    0.003026   0.000132  -0.180420   0.027349  -0.000424   0.045409
    28  P    0.000064  -0.000001   0.000570  -0.000108   0.000168   0.010404
    29  O   -0.000029   0.000001  -0.008751  -0.000006  -0.000000  -0.006192
    30  O    0.000002   0.000000  -0.001711   0.000008   0.000003   0.004683
    31  H   -0.000001  -0.000000   0.003481  -0.000002  -0.000004   0.015537
    32  O   -0.000000  -0.000000  -0.000107  -0.000000   0.000000  -0.000968
    33  H    0.000000   0.000000   0.000103   0.000000  -0.000000   0.000525
    34  O    0.000113  -0.000011   0.004619  -0.000034  -0.000025  -0.052935
    35  H   -0.000452   0.000024   0.004385   0.000102   0.000041   0.057269
    36  O    0.000020   0.000003  -0.025921   0.000076   0.000090  -0.087185
    37  H   -0.000002  -0.000000   0.005472  -0.000000  -0.000016   0.024411
    38  H   -0.000017  -0.000001   0.015031  -0.000060  -0.000033   0.047861
    39  O   -0.000477   0.000212   0.000102  -0.000281   0.000310  -0.042087
    40  H    0.000424  -0.000365  -0.028712  -0.001336   0.000095   0.077531
    41  H    0.000014   0.000011   0.001389  -0.000669  -0.000021   0.009297
    42  O   -0.000003   0.000001  -0.015631  -0.000087   0.000048  -0.064397
    43  H    0.000003  -0.000000   0.001448   0.000002  -0.000003   0.005186
    44  H    0.000010  -0.000000   0.022415   0.000176  -0.000051   0.027034
              25         26         27         28         29         30
     1  C    0.023225  -0.054635  -0.046493   0.067035  -0.070032  -0.022080
     2  C   -0.022151   0.166416  -0.067199  -0.026724   0.012627   0.033031
     3  C    0.017148  -0.134186  -0.001879  -0.060296  -0.026836  -0.032822
     4  C    0.039538   0.180419   0.023882   0.086557  -0.022470   0.016335
     5  C   -0.023733  -0.159701  -0.067480  -0.052037   0.056691   0.000596
     6  H    0.000008   0.000109  -0.000227   0.004696  -0.019440   0.000140
     7  H   -0.000458   0.002118   0.001806  -0.000602   0.000503   0.000015
     8  H    0.000104  -0.001093  -0.000804  -0.000591  -0.001007  -0.000023
     9  H    0.000148  -0.005880   0.001228   0.000521  -0.000054  -0.000013
    10  C    0.000100  -0.009487   0.010256  -0.013802   0.008102   0.000151
    11  H   -0.000002  -0.000290   0.000005   0.002119  -0.000125  -0.000000
    12  H   -0.000094   0.001140   0.000016  -0.006320  -0.000606   0.000188
    13  H   -0.000004  -0.000080  -0.000055   0.000552  -0.001501  -0.000000
    14  N   -0.048071   0.009076  -0.047484  -0.001786   0.001658   0.001488
    15  C    0.003842  -0.034119   0.012776  -0.003584   0.001969   0.001179
    16  H   -0.000031   0.001272   0.000807  -0.000034   0.000006   0.000000
    17  H    0.000009   0.000091   0.007369  -0.000093  -0.000016   0.000000
    18  C   -0.087985   0.072035   0.067755  -0.000608   0.001014   0.000252
    19  H    0.000612  -0.010801   0.003026   0.000064  -0.000029   0.000002
    20  H   -0.000088   0.000856   0.000132  -0.000001   0.000001   0.000000
    21  C   -0.086766  -0.259455  -0.180420   0.000570  -0.008751  -0.001711
    22  H    0.000077  -0.002678   0.027349  -0.000108  -0.000006   0.000008
    23  H    0.006643   0.011711  -0.000424   0.000168  -0.000000   0.000003
    24  S    0.483972   0.186273   0.045409   0.010404  -0.006192   0.004683
    25  O    8.282920  -0.091719  -0.085476   0.013504  -0.009131  -0.002419
    26  O   -0.091719   8.684625   0.020422   0.001069   0.022900  -0.018981
    27  O   -0.085476   0.020422   9.136718  -0.018532   0.030278   0.002672
    28  P    0.013504   0.001069  -0.018532  12.775969   0.387805   0.208505
    29  O   -0.009131   0.022900   0.030278   0.387805   8.372810  -0.011920
    30  O   -0.002419  -0.018981   0.002672   0.208505  -0.011920   8.272348
    31  H   -0.005097   0.002945  -0.007930   0.044624  -0.005645   0.122991
    32  O    0.000440   0.002394  -0.000009   0.175307   0.006915  -0.034035
    33  H    0.000032  -0.000078  -0.000034  -0.008951  -0.012467  -0.000667
    34  O   -0.001555   0.055668   0.000808   0.238970  -0.057563  -0.053337
    35  H    0.003321   0.009519  -0.001506   0.035896  -0.026804   0.019659
    36  O    0.010020  -0.005527   0.064720   0.003239   0.017272   0.123854
    37  H   -0.001541  -0.002181  -0.018789   0.014304  -0.010242  -0.040382
    38  H    0.007450   0.001616  -0.018392   0.004859  -0.004851  -0.035820
    39  O   -0.003148   0.000986   0.038051  -0.000260   0.000020   0.000015
    40  H    0.000624   0.000094  -0.067561   0.000018   0.000305  -0.000008
    41  H    0.000343   0.000019  -0.004403   0.000072  -0.000010  -0.000001
    42  O   -0.003528   0.011142   0.084277  -0.025266   0.034558   0.026067
    43  H    0.001554  -0.001256  -0.013426   0.023626   0.016779  -0.016682
    44  H    0.002388  -0.014154  -0.039170  -0.001976  -0.013927  -0.003738
              31         32         33         34         35         36
     1  C    0.003376   0.005343   0.000080   0.037634  -0.026926  -0.030306
     2  C   -0.003021  -0.007885   0.000328  -0.050437   0.036025   0.018612
     3  C    0.011185  -0.008438  -0.006219   0.053976  -0.097930  -0.024039
     4  C   -0.004166   0.029032   0.005700  -0.058158   0.097618   0.016161
     5  C   -0.003568  -0.007383  -0.001407  -0.033615   0.011094   0.000627
     6  H   -0.000052  -0.000135   0.000103  -0.001531   0.000593   0.000054
     7  H   -0.000005  -0.000005  -0.000000   0.000003   0.000019   0.000106
     8  H    0.000014  -0.000006  -0.000001   0.000133  -0.000084  -0.000294
     9  H    0.000003   0.000010  -0.000001   0.000487  -0.000738  -0.000004
    10  C    0.000081  -0.003019   0.001311   0.037471  -0.002259   0.000959
    11  H    0.000000  -0.000036  -0.000007   0.000858  -0.000108  -0.000000
    12  H   -0.000023   0.000355   0.000030  -0.006073   0.002542   0.000011
    13  H    0.000002   0.000348  -0.000010  -0.002030  -0.000344  -0.000003
    14  N   -0.001262  -0.000111   0.000016  -0.006568   0.008094   0.006573
    15  C   -0.001168   0.000033   0.000022   0.002911   0.001219   0.010533
    16  H    0.000000  -0.000000  -0.000000   0.000010  -0.000017  -0.000001
    17  H    0.000001  -0.000000  -0.000000  -0.000002   0.000002  -0.000027
    18  C    0.000421  -0.000132  -0.000023  -0.007964   0.008586  -0.004068
    19  H   -0.000001  -0.000000   0.000000   0.000113  -0.000452   0.000020
    20  H   -0.000000  -0.000000   0.000000  -0.000011   0.000024   0.000003
    21  C    0.003481  -0.000107   0.000103   0.004619   0.004385  -0.025921
    22  H   -0.000002  -0.000000   0.000000  -0.000034   0.000102   0.000076
    23  H   -0.000004   0.000000  -0.000000  -0.000025   0.000041   0.000090
    24  S    0.015537  -0.000968   0.000525  -0.052935   0.057269  -0.087185
    25  O   -0.005097   0.000440   0.000032  -0.001555   0.003321   0.010020
    26  O    0.002945   0.002394  -0.000078   0.055668   0.009519  -0.005527
    27  O   -0.007930  -0.000009  -0.000034   0.000808  -0.001506   0.064720
    28  P    0.044624   0.175307  -0.008951   0.238970   0.035896   0.003239
    29  O   -0.005645   0.006915  -0.012467  -0.057563  -0.026804   0.017272
    30  O    0.122991  -0.034035  -0.000667  -0.053337   0.019659   0.123854
    31  H    0.377875  -0.002918   0.000748   0.029368  -0.005491  -0.179383
    32  O   -0.002918   8.088408   0.245203   0.014879   0.001471   0.006599
    33  H    0.000748   0.245203   0.463323  -0.001411   0.001825   0.000045
[...]
 Quadrupole moment (field-independent basis, Debye-Ang):
   XX=              0.4667   YY=              5.4935   ZZ=             -4.7790
   XY=             10.7882   XZ=              8.9240   YZ=              6.2239
 Traceless Quadrupole moment (field-independent basis, Debye-Ang):
   XX=              0.0730   YY=              5.0998   ZZ=             -5.1727
   XY=             10.7882   XZ=              8.9240   YZ=              6.2239
 Octapole moment (field-independent basis, Debye-Ang**2):
  XXX=            -12.2422  YYY=              6.7643  ZZZ=            -83.2174  XYY=             54.9890
  XXY=              1.8653  XXZ=              3.6088  XZZ=             29.8797  YZZ=             -5.1697
  YYZ=             36.5308  XYZ=             52.1346
 Hexadecapole moment (field-independent basis, Debye-Ang**3):
 XXXX=            -61.9398 YYYY=           -221.3608 ZZZZ=           -804.7956 XXXY=            -72.3037
 XXXZ=            -51.1080 YYYX=            239.8608 YYYZ=            104.0352 ZZZX=             31.6952
 ZZZY=           -354.2445 XXYY=             -7.9783 XXZZ=             -1.4715 YYZZ=            -11.9129
 XXYZ=             17.0465 YYXZ=            269.1712 ZZXY=            180.2548
 N-N= 9.094649983839D+00 E-N=-1.990404818141D+02  KE= 7.619222575295D+01
 No NMR shielding tensors so no spin-rotation constants.
 Leave Link  601 at Mon May 16 14:18:46 2022, MaxMem=  2684354560 cpu:               1.0 elap:               0.1
 (Enter /data0/hywu0/study/g16/l122.exe)
 CPIOFr:  IOpCl= 0 IRwI=-1 IRwCP=  731 ICalc=  9 LCPTot=      842931 Len1MO=     2217644 IndFrg=    23019371
 Counterpoise: doing calculation for fragment   5 using the basis set of the fragment.
 Leave Link  122 at Mon May 16 14:18:46 2022, MaxMem=  2684354560 cpu:               0.2 elap:               0.0
 (Enter /data0/hywu0/study/g16/l301.exe)
 Basis read from rwf:  (5D, 7F)
 No pseudopotential information found on rwf file.
    39 basis functions,    58 primitive gaussians,    41 cartesian basis functions
     5 alpha electrons        5 beta electrons
       nuclear repulsion energy         9.0893586857 Hartrees.
 IExCor= 4336 DFT=T Ex+Corr=M062X ExCW=0 ScaHFX=  0.540000
 ScaDFX=  1.000000  1.000000  1.000000  1.000000 ScalE2=  1.000000  1.000000
 IRadAn=      5 IRanWt=     -1 IRanGd=            0 ICorTp=0 IEmpDi=131
 NAtoms=   44 NActive=    3 NUniq=    3 SFac= 1.00D+00 NAtFMM=   60 NAOKFM=F Big=F
 Integral buffers will be    131072 words long.
 Raffenetti 2 integral format.
 Two-electron integral symmetry is turned off.
 R6Disp:  Grimme-D3 Dispersion energy=       -0.0000000074 Hartrees.
 Nuclear repulsion after empirical dispersion term =        9.0893586783 Hartrees.
 No density basis found on file   718.
 Leave Link  301 at Mon May 16 14:18:46 2022, MaxMem=  2684354560 cpu:               0.8 elap:               0.1
 (Enter /data0/hywu0/study/g16/l302.exe)
 NPDir=0 NMtPBC=     1 NCelOv=     1 NCel=       1 NClECP=     1 NCelD=      1
         NCelK=      1 NCelE2=     1 NClLst=     1 CellRange=     0.0.
 One-electron integrals computed using PRISM.
 NBasis=    39 RedAO= T EigKep=  3.01D-03  NBF=    39
 NBsUse=    39 1.00D-06 EigRej= -1.00D+00 NBFU=    39
 Precomputing XC quadrature grid using
 IXCGrd= 4 IRadAn=           5 IRanWt=          -1 IRanGd=           0 AccXCQ= 0.00D+00.
 Generated NRdTot=       0 NPtTot=           0 NUsed=           0 NTot=          32
 NSgBfM=    41    41    41    41    41 MxSgAt=     3 MxSgA2=     3.
 Leave Link  302 at Mon May 16 14:18:46 2022, MaxMem=  2684354560 cpu:               1.4 elap:               0.1
 (Enter /data0/hywu0/study/g16/l303.exe)
 DipDrv:  MaxL=1.
 Leave Link  303 at Mon May 16 14:18:46 2022, MaxMem=  2684354560 cpu:               0.3 elap:               0.0
 (Enter /data0/hywu0/study/g16/l401.exe)
 ExpMin= 8.45D-02 ExpMax= 8.59D+03 ExpMxC= 1.30D+03 IAcc=3 IRadAn=         5 AccDes= 0.00D+00
 Harris functional with IExCor= 1009 and IRadAn=       5 diagonalized for initial guess.
 HarFok:  IExCor= 1009 AccDes= 0.00D+00 IRadAn=         5 IDoV= 1 UseB2=F ITyADJ=14
 ICtDFT=  3500011 ScaDFX=  1.000000  1.000000  1.000000  1.000000
 FoFCou: FMM=F IPFlag=           0 FMFlag=      100000 FMFlg1=           0
         NFxFlg=           0 DoJE=T BraDBF=F KetDBF=T FulRan=T
         wScrn=  0.000000 ICntrl=       500 IOpCl=  0 I1Cent=   200000004 NGrid=           0
         NMat0=    1 NMatS0=      1 NMatT0=    0 NMatD0=    1 NMtDS0=    0 NMtDT0=    0
 Symmetry not used in FoFCou.
 Harris En= -76.4162525888706    
 JPrj=0 DoOrth=F DoCkMO=F.
 Leave Link  401 at Mon May 16 14:18:46 2022, MaxMem=  2684354560 cpu:               1.6 elap:               0.1
 (Enter /data0/hywu0/study/g16/l502.exe)
 Keep R1 ints in memory in canonical form, NReq=14136253.
 FoFCou: FMM=F IPFlag=           0 FMFlag=           0 FMFlg1=           0
         NFxFlg=           0 DoJE=F BraDBF=F KetDBF=F FulRan=T
         wScrn=  0.000000 ICntrl=       600 IOpCl=  0 I1Cent=           0 NGrid=           0
         NMat0=    1 NMatS0=    780 NMatT0=    0 NMatD0=    1 NMtDS0=    0 NMtDT0=    0
 Symmetry not used in FoFCou.
 Two-electron integral symmetry not used.
 Closed shell SCF:
 Using DIIS extrapolation, IDIIS=  1040.
 NGot=  2684354560 LenX=  2684044211 LenY=  2684042089
 Requested convergence on RMS density matrix=1.00D-08 within 128 cycles.
 Requested convergence on MAX density matrix=1.00D-06.
 Requested convergence on             energy=1.00D-06.
 No special actions if energy rises.
 Integral accuracy reduced to 1.0D-05 until final iterations.

 Cycle   1  Pass 0  IDiag  1:
 E= -76.3466002132411    
 DIIS: error= 6.99D-02 at cycle   1 NSaved=   1.
 NSaved= 1 IEnMin= 1 EnMin= -76.3466002132411     IErMin= 1 ErrMin= 6.99D-02
 ErrMax= 6.99D-02  0.00D+00 EMaxC= 1.00D-01 BMatC= 1.20D-01 BMatP= 1.20D-01
 IDIUse=3 WtCom= 3.01D-01 WtEn= 6.99D-01
 Coeff-Com:  0.100D+01
 Coeff-En:   0.100D+01
 Coeff:      0.100D+01
 Gap=     0.325 Goal=   None    Shift=    0.000
 GapD=    0.325 DampG=1.000 DampE=0.500 DampFc=0.5000 IDamp=-1.
 Damping current iteration by 5.00D-01
 RMSDP=7.96D-03 MaxDP=1.01D-01              OVMax= 1.68D-01

 Cycle   2  Pass 0  IDiag  1:
 E= -76.3778456957455     Delta-E=       -0.031245482504 Rises=F Damp=T
 DIIS: error= 1.13D-02 at cycle   2 NSaved=   2.
 NSaved= 2 IEnMin= 2 EnMin= -76.3778456957455     IErMin= 2 ErrMin= 1.13D-02
 ErrMax= 1.13D-02  0.00D+00 EMaxC= 1.00D-01 BMatC= 4.85D-03 BMatP= 1.20D-01
 IDIUse=3 WtCom= 8.87D-01 WtEn= 1.13D-01
 Coeff-Com:  0.832D-01 0.917D+00
 Coeff-En:   0.189D+00 0.811D+00
 Coeff:      0.952D-01 0.905D+00
 Gap=     0.457 Goal=   None    Shift=    0.000
 RMSDP=9.49D-04 MaxDP=1.41D-02 DE=-3.12D-02 OVMax= 1.00D-01

 Cycle   3  Pass 0  IDiag  1:
 E= -76.4216374512067     Delta-E=       -0.043791755461 Rises=F Damp=F
 DIIS: error= 2.16D-03 at cycle   3 NSaved=   3.
 NSaved= 3 IEnMin= 3 EnMin= -76.4216374512067     IErMin= 3 ErrMin= 2.16D-03
 ErrMax= 2.16D-03  0.00D+00 EMaxC= 1.00D-01 BMatC= 9.08D-05 BMatP= 4.85D-03
 IDIUse=3 WtCom= 9.78D-01 WtEn= 2.16D-02
 Coeff-Com: -0.199D-01 0.394D-01 0.981D+00
 Coeff-En:   0.000D+00 0.000D+00 0.100D+01
 Coeff:     -0.195D-01 0.385D-01 0.981D+00
 Gap=     0.461 Goal=   None    Shift=    0.000
 RMSDP=1.14D-04 MaxDP=9.49D-04 DE=-4.38D-02 OVMax= 3.32D-03

 Cycle   4  Pass 0  IDiag  1:
 E= -76.4217149617703     Delta-E=       -0.000077510564 Rises=F Damp=F
 DIIS: error= 4.14D-04 at cycle   4 NSaved=   4.
 NSaved= 4 IEnMin= 4 EnMin= -76.4217149617703     IErMin= 4 ErrMin= 4.14D-04
 ErrMax= 4.14D-04  0.00D+00 EMaxC= 1.00D-01 BMatC= 3.28D-06 BMatP= 9.08D-05
 IDIUse=3 WtCom= 9.96D-01 WtEn= 4.14D-03
 Coeff-Com: -0.189D-02-0.226D-02 0.162D+00 0.842D+00
 Coeff-En:   0.000D+00 0.000D+00 0.000D+00 0.100D+01
 Coeff:     -0.188D-02-0.225D-02 0.161D+00 0.843D+00
 Gap=     0.462 Goal=   None    Shift=    0.000
 RMSDP=2.22D-05 MaxDP=3.55D-04 DE=-7.75D-05 OVMax= 5.38D-04

 Cycle   5  Pass 0  IDiag  1:
 E= -76.4217169932565     Delta-E=       -0.000002031486 Rises=F Damp=F
 DIIS: error= 8.89D-05 at cycle   5 NSaved=   5.
 NSaved= 5 IEnMin= 5 EnMin= -76.4217169932565     IErMin= 5 ErrMin= 8.89D-05
 ErrMax= 8.89D-05  0.00D+00 EMaxC= 1.00D-01 BMatC= 8.26D-08 BMatP= 3.28D-06
 IDIUse=1 WtCom= 1.00D+00 WtEn= 0.00D+00
 Coeff-Com:  0.118D-02-0.180D-02-0.368D-01-0.641D-01 0.110D+01
 Coeff:      0.118D-02-0.180D-02-0.368D-01-0.641D-01 0.110D+01
 Gap=     0.462 Goal=   None    Shift=    0.000
 RMSDP=9.00D-06 MaxDP=1.02D-04 DE=-2.03D-06 OVMax= 2.03D-04

 Initial convergence to 1.0D-05 achieved.  Increase integral accuracy.
 Cycle   6  Pass 1  IDiag  1:
 E= -76.4217072979367     Delta-E=        0.000009695320 Rises=F Damp=F
 DIIS: error= 3.24D-05 at cycle   1 NSaved=   1.
 NSaved= 1 IEnMin= 1 EnMin= -76.4217072979367     IErMin= 1 ErrMin= 3.24D-05
 ErrMax= 3.24D-05  0.00D+00 EMaxC= 1.00D-01 BMatC= 2.00D-08 BMatP= 2.00D-08
 IDIUse=1 WtCom= 1.00D+00 WtEn= 0.00D+00
 Coeff-Com:  0.100D+01
 Coeff:      0.100D+01
 Gap=     0.462 Goal=   None    Shift=    0.000
 RMSDP=9.00D-06 MaxDP=1.02D-04 DE= 9.70D-06 OVMax= 4.66D-05

 Cycle   7  Pass 1  IDiag  1:
 E= -76.4217073138946     Delta-E=       -0.000000015958 Rises=F Damp=F
 DIIS: error= 7.87D-06 at cycle   2 NSaved=   2.
 NSaved= 2 IEnMin= 2 EnMin= -76.4217073138946     IErMin= 2 ErrMin= 7.87D-06
 ErrMax= 7.87D-06  0.00D+00 EMaxC= 1.00D-01 BMatC= 1.12D-09 BMatP= 2.00D-08
 IDIUse=1 WtCom= 1.00D+00 WtEn= 0.00D+00
 Coeff-Com:  0.475D-02 0.995D+00
 Coeff:      0.475D-02 0.995D+00
 Gap=     0.462 Goal=   None    Shift=    0.000
 RMSDP=8.05D-07 MaxDP=1.20D-05 DE=-1.60D-08 OVMax= 2.01D-05

 Cycle   8  Pass 1  IDiag  1:
 E= -76.4217073140907     Delta-E=       -0.000000000196 Rises=F Damp=F
 DIIS: error= 6.96D-06 at cycle   3 NSaved=   3.
 NSaved= 3 IEnMin= 3 EnMin= -76.4217073140907     IErMin= 3 ErrMin= 6.96D-06
 ErrMax= 6.96D-06  0.00D+00 EMaxC= 1.00D-01 BMatC= 1.21D-09 BMatP= 1.12D-09
 IDIUse=1 WtCom= 1.00D+00 WtEn= 0.00D+00
 Coeff-Com: -0.454D-01 0.536D+00 0.509D+00
 Coeff:     -0.454D-01 0.536D+00 0.509D+00
 Gap=     0.462 Goal=   None    Shift=    0.000
 RMSDP=3.90D-07 MaxDP=5.24D-06 DE=-1.96D-10 OVMax= 9.10D-06

 Cycle   9  Pass 1  IDiag  1:
 E= -76.4217073148886     Delta-E=       -0.000000000798 Rises=F Damp=F
 DIIS: error= 6.32D-07 at cycle   4 NSaved=   4.
 NSaved= 4 IEnMin= 4 EnMin= -76.4217073148886     IErMin= 4 ErrMin= 6.32D-07
 ErrMax= 6.32D-07  0.00D+00 EMaxC= 1.00D-01 BMatC= 5.51D-12 BMatP= 1.12D-09
 IDIUse=1 WtCom= 1.00D+00 WtEn= 0.00D+00
 Coeff-Com: -0.279D-02-0.142D-01 0.198D-01 0.997D+00
 Coeff:     -0.279D-02-0.142D-01 0.198D-01 0.997D+00
 Gap=     0.462 Goal=   None    Shift=    0.000
 RMSDP=8.46D-08 MaxDP=5.91D-07 DE=-7.98D-10 OVMax= 1.76D-06

 Cycle  10  Pass 1  IDiag  1:
 E= -76.4217073148989     Delta-E=       -0.000000000010 Rises=F Damp=F
 DIIS: error= 1.08D-07 at cycle   5 NSaved=   5.
 NSaved= 5 IEnMin= 5 EnMin= -76.4217073148989     IErMin= 5 ErrMin= 1.08D-07
 ErrMax= 1.08D-07  0.00D+00 EMaxC= 1.00D-01 BMatC= 3.57D-13 BMatP= 5.51D-12
 IDIUse=1 WtCom= 1.00D+00 WtEn= 0.00D+00
 Coeff-Com:  0.328D-02-0.427D-01-0.363D-01 0.314D-01 0.104D+01
 Coeff:      0.328D-02-0.427D-01-0.363D-01 0.314D-01 0.104D+01
 Gap=     0.462 Goal=   None    Shift=    0.000
 RMSDP=3.05D-08 MaxDP=2.13D-07 DE=-1.03D-11 OVMax= 5.96D-07

 Cycle  11  Pass 1  IDiag  1:
 E= -76.4217073149000     Delta-E=       -0.000000000001 Rises=F Damp=F
 DIIS: error= 1.58D-08 at cycle   6 NSaved=   6.
 NSaved= 6 IEnMin= 6 EnMin= -76.4217073149000     IErMin= 6 ErrMin= 1.58D-08
 ErrMax= 1.58D-08  0.00D+00 EMaxC= 1.00D-01 BMatC= 5.03D-15 BMatP= 3.57D-13
 IDIUse=1 WtCom= 1.00D+00 WtEn= 0.00D+00
 Coeff-Com: -0.150D-03 0.295D-02 0.299D-02-0.256D-01-0.723D-01 0.109D+01
 Coeff:     -0.150D-03 0.295D-02 0.299D-02-0.256D-01-0.723D-01 0.109D+01
 Gap=     0.462 Goal=   None    Shift=    0.000
 RMSDP=4.19D-09 MaxDP=3.48D-08 DE=-1.11D-12 OVMax= 8.63D-08

 SCF Done:  E(RM062X) =  -76.4217073149     A.U. after   11 cycles
            NFock= 11  Conv=0.42D-08     -V/T= 2.0030
 KE= 7.619127463853D+01 PE=-1.990262052598D+02 EE= 3.732386462803D+01
 Leave Link  502 at Mon May 16 14:18:46 2022, MaxMem=  2684354560 cpu:               5.6 elap:               0.4
 (Enter /data0/hywu0/study/g16/l601.exe)
 Copying SCF densities to generalized density rwf, IOpCl= 0 IROHF=0.

 **********************************************************************

            Population analysis using the SCF density.

 **********************************************************************

 Alpha  occ. eigenvalues --  -19.62676  -1.13345  -0.60474  -0.47694  -0.39996
 Alpha virt. eigenvalues --    0.06214   0.13303   0.17420   0.17943   0.18904
 Alpha virt. eigenvalues --    0.23397   0.50882   0.53404   0.98104   1.00262
 Alpha virt. eigenvalues --    1.06008   1.17602   1.20125   1.31968   1.34008
 Alpha virt. eigenvalues --    1.70403   1.74263   1.75309   2.07373   2.09548
 Alpha virt. eigenvalues --    2.36305   2.39669   2.54842   2.87781   3.01205
 Alpha virt. eigenvalues --    5.05627   5.48687   5.90810   6.78473   6.80056
 Alpha virt. eigenvalues --    6.87330   6.91605   7.09529  49.95526
          Condensed to atoms (all electrons):
              42         43         44
    42  O    7.918213   0.318942   0.316326
    43  H    0.318942   0.429304  -0.023828
    44  H    0.316326  -0.023828   0.429605
 Mulliken charges:
               1
     1  C    0.000000
     2  C    0.000000
     3  C    0.000000
     4  C    0.000000
     5  C    0.000000
     6  H    0.000000
     7  H    0.000000
     8  H    0.000000
     9  H    0.000000
    10  C    0.000000
    11  H    0.000000
    12  H    0.000000
    13  H    0.000000
    14  N    0.000000
    15  C    0.000000
    16  H    0.000000
    17  H    0.000000
    18  C    0.000000
    19  H    0.000000
    20  H    0.000000
    21  C    0.000000
    22  H    0.000000
    23  H    0.000000
    24  S    0.000000
    25  O    0.000000
    26  O    0.000000
    27  O    0.000000
    28  P    0.000000
    29  O    0.000000
    30  O    0.000000
    31  H    0.000000
    32  O    0.000000
    33  H    0.000000
    34  O    0.000000
    35  H    0.000000
    36  O    0.000000
    37  H    0.000000
    38  H    0.000000
    39  O    0.000000
    40  H    0.000000
    41  H    0.000000
    42  O   -0.553481
    43  H    0.275582
    44  H    0.277898
 Sum of Mulliken charges =  -0.00000
 Mulliken charges with hydrogens summed into heavy atoms:
               1
     1  C    0.000000
     2  C    0.000000
     3  C    0.000000
     4  C    0.000000
     5  C    0.000000
    10  C    0.000000
    14  N    0.000000
    15  C    0.000000
    18  C    0.000000
    21  C    0.000000
    24  S    0.000000
    25  O    0.000000
    26  O    0.000000
    27  O    0.000000
    28  P    0.000000
    29  O    0.000000
    30  O    0.000000
    32  O    0.000000
    34  O    0.000000
    36  O    0.000000
    39  O    0.000000
    42  O   -0.000000
         Mulliken charges condensed to fragments:
      1      0.000000
      2      0.000000
      3      0.000000
      4      0.000000
      5     -0.000000
 Electronic spatial extent (au):  <R**2>=           3534.0237
 Charge=             -0.0000 electrons
 Dipole moment (field-independent basis, Debye):
    X=             -0.0784    Y=             -2.0170    Z=             -0.6964  Tot=              2.1353
 Quadrupole moment (field-independent basis, Debye-Ang):
   XX=             -7.1687   YY=            -27.0272   ZZ=            -15.1898
   XY=            -11.3372   XZ=             -2.5714   YZ=            -17.2407
 Traceless Quadrupole moment (field-independent basis, Debye-Ang):
   XX=              9.2932   YY=            -10.5653   ZZ=              1.2721
   XY=            -11.3372   XZ=             -2.5714   YZ=            -17.2407
 Octapole moment (field-independent basis, Debye-Ang**2):
  XXX=           -104.9124  YYY=           -258.6037  ZZZ=           -212.0104  XYY=           -146.6929
  XXY=            -96.8054  XXZ=            -50.7313  XZZ=            -61.6165  YZZ=           -171.4052
  YYZ=           -200.7174  XYZ=            -87.5944
 Hexadecapole moment (field-independent basis, Debye-Ang**3):
 XXXX=          -1070.5935 YYYY=          -2135.7151 ZZZZ=          -2435.5559 XXXY=           -871.2090
 XXXZ=           -676.8770 YYYX=          -1383.1986 YYYZ=          -1834.8722 ZZZX=           -917.9648
 ZZZY=          -1732.4377 XXYY=           -973.0448 XXZZ=           -520.8099 YYZZ=          -1641.9012
 XXYZ=           -670.1543 YYXZ=          -1046.7988 ZZXY=           -826.6747
 N-N= 9.089358678333D+00 E-N=-1.990262055458D+02  KE= 7.619127463853D+01
 No NMR shielding tensors so no spin-rotation constants.
 Leave Link  601 at Mon May 16 14:18:46 2022, MaxMem=  2684354560 cpu:               1.0 elap:               0.1
 (Enter /data0/hywu0/study/g16/l122.exe)
 CPIOFr:  IOpCl= 0 IRwI=-1 IRwCP=  731 ICalc= 10 LCPTot=      842931 Len1MO=     2217644 IndFrg=    25237015
 Restoring MOs from calculation   1 to rwf.
 CPIOFr:  IOpCl= 0 IRwI=-2 IRwCP=  731 ICalc=  0 LCPTot=      842931 Len1MO=     2217644 IndFrg=     3060575
 Counterpoise corrected energy =   -1902.800306951073
                   BSSE energy =       0.008947394914
              sum of fragments =   -1902.679523163825
           complexation energy =     -81.41 kcal/mole (raw)
           complexation energy =     -75.79 kcal/mole (corrected)
 Leave Link  122 at Mon May 16 14:18:47 2022, MaxMem=  2684354560 cpu:               0.5 elap:               0.0
 (Enter /data0/hywu0/study/g16/l9999.exe)
 1\1\GINC-LOCALHOST\SP\RM062X\6-311+G(2d,p)\C9H22N1O10P1S1\HYWU0\16-May
 -2022\0\\#p M062X/6-311+G(2d,p) nosymm em=GD3 counterpoise=5\\Title Ca
 rd Required\\0,1\C,0,2.630459,2.881059,6.367009\C,0,3.485082,2.673888,
 7.450557\C,0,4.145178,1.459054,7.600028\C,0,3.966337,0.463891,6.626943
 \C,0,3.131863,0.718504,5.538449\H,0,4.806021,1.284753,8.457584\H,0,2.0
 92445,3.835525,6.237711\H,0,3.665776,3.496683,8.150328\H,0,3.030684,-0
 .00805,4.723575\C,0,4.687182,-0.831386,6.698466\H,0,4.016957,-1.697288
 ,6.659255\H,0,5.402271,-0.923832,5.853305\H,0,5.304632,-0.924884,7.606
 092\N,0,2.449057,1.898254,5.438727\C,0,1.540905,2.135435,4.29006\H,0,0
 .642976,1.490591,4.426351\H,0,1.175528,3.199018,4.319835\C,0,2.174903,
 1.864467,2.910311\H,0,2.715399,0.892615,2.90631\H,0,1.345051,1.735174,
 2.180554\C,0,3.093557,2.977261,2.415635\H,0,2.545876,3.93894,2.347744\
 H,0,3.440801,2.764253,1.388336\S,0,4.517498,3.185432,3.502121\O,0,5.58
 4478,3.893514,2.800918\O,0,4.827834,1.802224,3.955898\O,0,3.9258,4.003
 763,4.6234\P,0,7.506023,1.952146,6.36157\O,0,6.433021,2.560558,7.15922
 7\O,0,8.548905,2.90452,5.652637\H,0,8.069686,3.785558,5.309589\O,0,8.4
 47687,1.056798,7.29181\H,0,9.22156,0.710998,6.704566\O,0,7.065642,0.90
 0087,5.263603\H,0,6.211901,1.26302,4.750205\O,0,7.325639,5.19703,4.702
 345\H,0,6.640141,5.408704,5.354843\H,0,6.832397,4.870189,3.925554\O,0,
 1.622113,5.387597,4.434789\H,0,2.517049,4.978717,4.501485\H,0,1.767039
 ,6.318889,4.551736\O,0,5.171482,5.26109,6.715839\H,0,5.637678,4.495373
 ,7.0617\H,0,4.657491,4.889873,5.973007\\Version=ES64L-G16RevA.03\HF=-7
 6.4217073\RMSD=4.186e-09\Dipole=-3.2813763,-2.4481971,-0.4077554\Quadr
 upole=-29.3090036,6.4299263,22.8790772,-41.0413115,-32.413579,-27.5101
 716\PG=C01 [X(C9H22N1O10P1S1)]\\@


 OLD HORSE! OLD HORSE! WHAT BROUGHT YOU HERE?
 FROM SACARAP' TO PORTLAND PIER
 I'VE CARTED STONE THIS MANY A YEAR;
 TILL, KILLED BY BLOWS AND SORE ABUSE,
 THEY SALTED ME DOWN FOR SAILORS' USE.
 THE SAILORS THEY DO ME DESPISE;
 THEY TURN ME OVER AND DAMN MY EYES;
 CUT OFF MY MEAT, AND SCRAPE MY BONES,
 AND PITCH ME OVER TO DAVY JONES.

    SAILORS' COMPLAINT ABOUT THE BEEF
    SERVED ON SHIPBOARD, CIRCA 1835.
 Job cpu time:       0 days  7 hours 50 minutes 11.0 seconds.
 Elapsed time:       0 days  0 hours 29 minutes 31.1 seconds.
 File lengths (MBytes):  RWF=    536 Int=      0 D2E=      0 Chk=    223 Scr=      1
 Normal termination of Gaussian 16 at Mon May 16 14:18:47 2022.
