          29
 Energy =     -992.59095500 a.u.  Frame:     1 Step:     1 Geom:     1
C          18.37712200      2.11737000      8.81912000
H          19.08711500      2.93332400      8.62172900
H          17.48909700      2.30300700      8.15834600
H          18.82747700      1.16603400      8.50721700
C          16.93485200      0.97390100     10.43682600
H          17.35959400      0.03845300     10.02351100
H          16.04593800      1.22359800      9.77850400
C          17.38267300      3.42794100     10.62031000
H          16.98439300      3.45467100     11.66630300
H          18.11019100      4.23389700     10.48868200
H          16.47956900      3.66021800     10.00705800
C          19.16481700      1.82571100     11.11081600
H          19.95751100      2.56655300     10.91654000
H          18.91196300      1.88774600     12.18564900
H          19.57542200      0.82204200     10.91863000
C          16.47981900      0.76081400     11.88933000
H          16.82100500      1.58786700     12.55167600
H          16.95695200     -0.15234200     12.29712100
C          14.96487500      0.63404100     12.00242300
H          14.67080000      0.37493600     13.03224300
H          14.56985000     -0.16825400     11.36213300
N          17.95382100      2.09040700     10.26182500
S          14.11473900      2.20216100     11.55186300
O          15.01682100      3.24047100     12.09972900
O          14.20984200      2.15628900     10.05297900
O          12.77193700      2.11011900     12.10624300
O          15.58484200      2.85294700      7.92464100
H          15.02171200      2.63420300      8.73295600
H          14.94527000      3.05187500      7.25561000
          29
 Energy =     -992.59047140 a.u.  Frame:     2 Step:     2 Geom:     2
C          18.23749500      2.03635100      8.68161700
H          18.93506300      2.84369200      8.41561800
H          17.30433600      2.21798800      8.08498600
H          18.65892600      1.07551000      8.35954500
C          16.90019900      0.94768600     10.42152300
H          17.28127600     -0.00286200     10.00010000
H          15.97104000      1.19747400      9.82142000
C          17.39576400      3.39750200     10.52260100
H          17.04532300      3.44327700     11.58358500
H          18.13297900      4.18571900     10.34742900
H          16.47073500      3.64453300      9.94368200
C          19.18470800      1.77584800     10.91667400
H          19.97331600      2.49782400     10.64867400
H          19.01152400      1.86576200     12.00509700
H          19.56378000      0.76107400     10.71827500
C          16.54642500      0.77176500     11.90679800
H          16.92805500      1.61772800     12.52164800
H          17.05421200     -0.12877600     12.30532500
C          15.04319100      0.64402300     12.12585800
H          14.82091200      0.41366600     13.18025900
H          14.61010200     -0.17817600     11.53710900
N          17.91982900      2.04434100     10.15168200
S          14.15611200      2.19444100     11.68802700
O          15.09467100      3.25318400     12.12139300
O          14.13135000      2.09275900     10.18650700
O          12.86162700      2.12305000     12.34930900
O          15.45607000      3.00011400      8.13217900
H          14.90050700      2.68242400      8.92208800
H          14.81050600      3.34207900      7.53100600
          29
 Energy =     -992.59097440 a.u.  Frame:     3 Step:     3 Geom:     3
C          18.41503300      2.06206700      8.81934000
H          19.11787600      2.87760700      8.59631200
H          17.53929700      2.20115600      8.13124000
H          18.88523300      1.10313800      8.56532600
C          16.95432400      0.97875100     10.46167700
H          17.40232500      0.03026800     10.10683200
H          16.07730100      1.18017000      9.77137800
C          17.36201400      3.44572300     10.53040100
H          16.94024300      3.51863000     11.56468200
H          18.08050100      4.25529800     10.37373600
H          16.46938300      3.63279400      9.88690000
C          19.15604900      1.89825700     11.13916700
H          19.94138800      2.64164900     10.92568500
H          18.87828400      2.00865100     12.20389300
H          19.58631500      0.89329100     11.00566200
C          16.46885800      0.83322100     11.91267900
H          16.78109800      1.69926100     12.53850700
H          16.95089800     -0.04922100     12.37818800
C          14.95389300      0.68634500     11.99810000
H          14.63983400      0.47741300     13.03338800
H          14.58715300     -0.15568800     11.39294800
N          17.96041300      2.10094800     10.25220300
S          14.08940000      2.21309800     11.44454200
O          14.96152500      3.29489400     11.95541100
O          14.22053900      2.08801800      9.95281100
O          12.73561900      2.12785700     11.97261600
O          15.63344300      2.71465200      7.82819700
H          15.05503900      2.52248500      8.63249200
H          15.00674100      2.86926600      7.13570300
          29
 Energy =     -992.59097690 a.u.  Frame:     4 Step:     4 Geom:     4
C          18.19976600      1.98230000      8.65759300
H          18.92187400      2.75855500      8.36637900
H          17.26509700      2.18161100      8.06905900
H          18.58232700      1.00127900      8.34704800
C          16.86187400      0.96275000     10.43952100
H          17.21177200     -0.00483100     10.03022100
H          15.92905700      1.22507300      9.85033900
C          17.41987500      3.40072700     10.48257700
H          17.11696300      3.48379900     11.55701200
H          18.16388000      4.16945700     10.25510600
H          16.47594800      3.64793100      9.94080300
C          19.17418300      1.74341900     10.88261400
H          19.97487300      2.44253700     10.59094100
H          19.01940100      1.85544200     11.97187600
H          19.52710600      0.71695700     10.69628400
C          16.52815200      0.82426100     11.93342600
H          16.95728800      1.66115700     12.52893900
H          17.00412700     -0.09165300     12.33627000
C          15.02523800      0.76495400     12.18180700
H          14.81292800      0.55849100     13.24307300
H          14.54541800     -0.04452200     11.61232800
N          17.90445500      2.02751400     10.13135600
S          14.19912300      2.34823900     11.73963400
O          15.18496500      3.36889300     12.16199200
O          14.16003800      2.23892200     10.24150100
O          12.90793200      2.33450300     12.41158600
O          15.37078200      2.80628200      7.97970100
H          14.87192000      2.63839300      8.84066900
H          14.68365800      3.00756100      7.36036700
