 Entering Gaussian System, Link 0=g16
 Initial command:
 /data0/home/software/g16/l1.exe "/data0/home/software/g16/scratch/Gau-3828264.inp" -scrdir="/data0/home/software/g16/scratch/"
 Default is to use a total of  22 processors:
                               22 via shared-memory
                                1 via Linda
 Entering Link 1 = /data0/home/software/g16/l1.exe PID=   3828265.
  
 Copyright (c) 1988,1990,1992,1993,1995,1998,2003,2009,2016,
            Gaussian, Inc.  All Rights Reserved.
  
 This is part of the Gaussian(R) 16 program.  It is based on
 the Gaussian(R) 09 system (copyright 2009, Gaussian, Inc.),
 the Gaussian(R) 03 system (copyright 2003, Gaussian, Inc.),
 the Gaussian(R) 98 system (copyright 1998, Gaussian, Inc.),
 the Gaussian(R) 94 system (copyright 1995, Gaussian, Inc.),
 the Gaussian 92(TM) system (copyright 1992, Gaussian, Inc.),
 the Gaussian 90(TM) system (copyright 1990, Gaussian, Inc.),
 the Gaussian 88(TM) system (copyright 1988, Gaussian, Inc.),
 the Gaussian 86(TM) system (copyright 1986, Carnegie Mellon
 University), and the Gaussian 82(TM) system (copyright 1983,
 Carnegie Mellon University). Gaussian is a federally registered
 trademark of Gaussian, Inc.
  
 This software contains proprietary and confidential information,
 including trade secrets, belonging to Gaussian, Inc.
  
 This software is provided under written license and may be
 used, copied, transmitted, or stored only in accord with that
 written license.
  
 The following legend is applicable only to US Government
 contracts under FAR:
  
                    RESTRICTED RIGHTS LEGEND
  
 Use, reproduction and disclosure by the US Government is
 subject to restrictions as set forth in subparagraphs (a)
 and (c) of the Commercial Computer Software - Restricted
 Rights clause in FAR 52.227-19.
  
 Gaussian, Inc.
 340 Quinnipiac St., Bldg. 40, Wallingford CT 06492
  
  
 ---------------------------------------------------------------
 Warning -- This program may not be used in any manner that
 competes with the business of Gaussian, Inc. or will provide
 assistance to any competitor of Gaussian, Inc.  The licensee
 of this program is prohibited from giving any competitor of
 Gaussian, Inc. access to this program.  By using this program,
 the user acknowledges that Gaussian, Inc. is engaged in the
 business of creating and licensing software in the field of
 computational chemistry and represents and warrants to the
 licensee that it is not a competitor of Gaussian, Inc. and that
 it will not use this program in any manner prohibited above.
 ---------------------------------------------------------------
  

 Cite this work as:
 Gaussian 16, Revision A.03,
 M. J. Frisch, G. W. Trucks, H. B. Schlegel, G. E. Scuseria, 
 M. A. Robb, J. R. Cheeseman, G. Scalmani, V. Barone, 
 G. A. Petersson, H. Nakatsuji, X. Li, M. Caricato, A. V. Marenich, 
 J. Bloino, B. G. Janesko, R. Gomperts, B. Mennucci, H. P. Hratchian, 
 J. V. Ortiz, A. F. Izmaylov, J. L. Sonnenberg, D. Williams-Young, 
 F. Ding, F. Lipparini, F. Egidi, J. Goings, B. Peng, A. Petrone, 
 T. Henderson, D. Ranasinghe, V. G. Zakrzewski, J. Gao, N. Rega, 
 G. Zheng, W. Liang, M. Hada, M. Ehara, K. Toyota, R. Fukuda, 
 J. Hasegawa, M. Ishida, T. Nakajima, Y. Honda, O. Kitao, H. Nakai, 
 T. Vreven, K. Throssell, J. A. Montgomery, Jr., J. E. Peralta, 
 F. Ogliaro, M. J. Bearpark, J. J. Heyd, E. N. Brothers, K. N. Kudin, 
 V. N. Staroverov, T. A. Keith, R. Kobayashi, J. Normand, 
 K. Raghavachari, A. P. Rendell, J. C. Burant, S. S. Iyengar, 
 J. Tomasi, M. Cossi, J. M. Millam, M. Klene, C. Adamo, R. Cammi, 
 J. W. Ochterski, R. L. Martin, K. Morokuma, O. Farkas, 
 J. B. Foresman, and D. J. Fox, Gaussian, Inc., Wallingford CT, 2016.
 
 ******************************************
 Gaussian 16:  ES64L-G16RevA.03 25-Dec-2016
                17-Dec-2022 
 ******************************************
 %nproc=24
 Will use up to   24 processors via shared memory.
 %mem=50GB
 ---------------------------------------------------
 #p M062X/6-311+G(2d,p) nosymm em=GD3 counterpoise=3
 ---------------------------------------------------
 1/38=1,62=3,172=1/1;
 2/12=2,15=1,17=6,18=5,40=1/2;
 1/38=1,53=2,62=3,63=1/22;
 3/5=4,6=6,7=112,11=2,25=1,30=1,74=-55,124=31/1,2,3;
 4//1;
 5/5=2,38=5/2;
 6/7=2,8=2,9=2,10=2,28=1/1;
 1/53=2,62=3,63=1/22;
 3/5=7,6=11,7=112,11=2,25=1,30=1,74=-55,82=7,124=31/1,2,3;
 4//1;
 5/5=2,38=5/2;
 6/7=2,8=2,9=2,10=2,28=1/1;
 1/53=2,62=3,63=1/22(-4);
 99/5=1,9=1/99;
 Leave Link    1 at Sat Dec 17 23:29:48 2022, MaxMem=  6710886400 cpu:               0.7 elap:               0.0
 (Enter /data0/home/software/g16/l101.exe)
 -------------------
 Title Card Required
 -------------------
 Symbolic Z-matrix:
 Charge =  0 Multiplicity = 1 in supermolecule
 Charge =  0 Multiplicity = 1 in fragment      1.
 Charge =  0 Multiplicity = 1 in fragment      2.
 Charge =  0 Multiplicity = 1 in fragment      3.
 C                     6.63533   14.60377   11.17031    
 C                     6.12067   15.45263   10.1324    
 C                     5.17017   14.96601   9.23012    
 C                     4.75611   13.65426   9.3819     
 C                     5.26141   12.82867   10.40878    
 C                     6.20208   13.2843   11.31725    
 H                     4.7825    15.61077   8.44368    
 H                     4.0157    13.23927   8.69817    
 H                     4.89432   11.80414   10.48294    
 H                     6.586     12.64705   12.10783    
 H                     8.14556   15.05992   12.6127    
 C                     7.59743   16.63715   11.24939    
 H                     8.26211   17.42959   11.57457    
 N                     7.56119   15.38174   11.87457    
 N                     6.73857   16.70551   10.22659    
 O                     8.82986   13.8878   6.34496    
 H                     8.83685   13.48119   7.233      
 H                     7.90812   14.06744   6.1682     
 O                     8.70397   13.15834   9.05054    
 H                     7.81421   13.2298   9.40208    
 H                     9.12939   13.99577   9.29235    
 
 ITRead=  0  0  0  0  0  0  0  0  0  0  0  0  0  0  0  0  0  0  0  0
 ITRead=  0
 MicOpt= -1 -1 -1 -1 -1 -1 -1 -1 -1 -1 -1 -1 -1 -1 -1 -1 -1 -1 -1 -1
 MicOpt= -1
 NAtoms=     21 NQM=       21 NQMF=       0 NMMI=      0 NMMIF=      0
                NMic=       0 NMicF=      0.
                    Isotopes and Nuclear Properties:
 (Nuclear quadrupole moments (NQMom) in fm**2, nuclear magnetic moments (NMagM)
  in nuclear magnetons)

  Atom         1           2           3           4           5           6           7           8           9          10
 IAtWgt=          12          12          12          12          12          12           1           1           1           1
 AtmWgt=  12.0000000  12.0000000  12.0000000  12.0000000  12.0000000  12.0000000   1.0078250   1.0078250   1.0078250   1.0078250
 NucSpn=           0           0           0           0           0           0           1           1           1           1
 AtZEff=  -0.0000000  -0.0000000  -0.0000000  -0.0000000  -0.0000000  -0.0000000  -0.0000000  -0.0000000  -0.0000000  -0.0000000
 NQMom=    0.0000000   0.0000000   0.0000000   0.0000000   0.0000000   0.0000000   0.0000000   0.0000000   0.0000000   0.0000000
 NMagM=    0.0000000   0.0000000   0.0000000   0.0000000   0.0000000   0.0000000   2.7928460   2.7928460   2.7928460   2.7928460
 AtZNuc=   6.0000000   6.0000000   6.0000000   6.0000000   6.0000000   6.0000000   1.0000000   1.0000000   1.0000000   1.0000000

  Atom        11          12          13          14          15          16          17          18          19          20
 IAtWgt=           1          12           1          14          14          16           1           1          16           1
 AtmWgt=   1.0078250  12.0000000   1.0078250  14.0030740  14.0030740  15.9949146   1.0078250   1.0078250  15.9949146   1.0078250
 NucSpn=           1           0           1           2           2           0           1           1           0           1
 AtZEff=  -0.0000000  -0.0000000  -0.0000000  -0.0000000  -0.0000000  -0.0000000  -0.0000000  -0.0000000  -0.0000000  -0.0000000
 NQMom=    0.0000000   0.0000000   0.0000000   2.0440000   2.0440000   0.0000000   0.0000000   0.0000000   0.0000000   0.0000000
 NMagM=    2.7928460   0.0000000   2.7928460   0.4037610   0.4037610   0.0000000   2.7928460   2.7928460   0.0000000   2.7928460
 AtZNuc=   1.0000000   6.0000000   1.0000000   7.0000000   7.0000000   8.0000000   1.0000000   1.0000000   8.0000000   1.0000000

  Atom        21
 IAtWgt=           1
 AtmWgt=   1.0078250
 NucSpn=           1
 AtZEff=  -0.0000000
 NQMom=    0.0000000
 NMagM=    2.7928460
 AtZNuc=   1.0000000
 Leave Link  101 at Sat Dec 17 23:29:48 2022, MaxMem=  6710886400 cpu:               2.1 elap:               0.1
 (Enter /data0/home/software/g16/l202.exe)
                          Input orientation:                          
 ---------------------------------------------------------------------
 Center     Atomic      Atomic             Coordinates (Angstroms)
 Number     Number       Type             X           Y           Z
 ---------------------------------------------------------------------
      1          6           0        6.635329   14.603765   11.170309
      2          6           0        6.120670   15.452629   10.132403
      3          6           0        5.170173   14.966014    9.230123
      4          6           0        4.756111   13.654264    9.381903
      5          6           0        5.261407   12.828667   10.408784
      6          6           0        6.202080   13.284302   11.317248
      7          1           0        4.782497   15.610770    8.443678
      8          1           0        4.015704   13.239272    8.698169
      9          1           0        4.894323   11.804143   10.482939
     10          1           0        6.585999   12.647051   12.107827
     11          1           0        8.145565   15.059925   12.612696
     12          6           0        7.597426   16.637153   11.249394
     13          1           0        8.262109   17.429595   11.574569
     14          7           0        7.561187   15.381739   11.874571
     15          7           0        6.738567   16.705510   10.226588
     16          8           0        8.829859   13.887798    6.344960
     17          1           0        8.836853   13.481191    7.232997
     18          1           0        7.908120   14.067438    6.168199
     19          8           0        8.703970   13.158344    9.050538
     20          1           0        7.814211   13.229797    9.402076
     21          1           0        9.129393   13.995769    9.292346
 ---------------------------------------------------------------------
                    Distance matrix (angstroms):
                    1          2          3          4          5
     1  C    0.000000
     2  C    1.436208   0.000000
     3  C    2.458094   1.397980   0.000000
     4  C    2.762500   2.378947   1.383898   0.000000
     5  C    2.370349   2.774869   2.442502   1.411176   0.000000
     6  C    1.396524   2.472272   2.872121   2.444025   1.384838
     7  H    3.446964   2.160442   1.088347   2.169995   3.439636
     8  H    3.851721   3.374442   2.144158   1.089914   2.155592
     9  H    3.367709   3.865004   3.412194   2.157390   1.090825
    10  H    2.170277   3.462672   3.957693   3.434185   2.162007
    11  H    2.137610   3.225875   4.505949   4.888998   4.260764
    12  C    2.250900   2.198084   3.572355   4.523076   4.546227
    13  H    3.285598   3.251768   4.596273   5.599369   5.615319
    14  N    1.399443   2.261695   3.589273   4.131103   3.735732
    15  N    2.306209   1.400135   2.545319   3.735469   4.152723
    16  O    5.349071   4.912548   4.783306   5.086549   5.510923
    17  H    4.648581   4.435175   4.431451   4.615215   4.826513
    18  H    5.189292   4.563841   4.204661   4.520372   5.149971
    19  O    3.295747   3.620444   3.973367   3.992660   3.715476
    20  H    2.530652   2.888328   3.167800   3.087484   2.773297
    21  H    3.180685   3.446818   4.076846   4.387510   4.191644
                    6          7          8          9         10
     6  C    0.000000
     7  H    3.960439   0.000000
     8  H    3.412014   2.505342   0.000000
     9  H    2.144101   4.319896   2.452951   0.000000
    10  H    1.085586   5.046012   4.310790   2.492493   0.000000
    11  H    2.933966   5.384642   5.974450   5.070163   2.917036
    12  C    3.632245   4.104793   5.557254   5.590367   4.204855
    13  H    4.636096   5.021783   6.623023   6.646755   5.095727
    14  N    2.560668   4.420928   5.220167   4.674184   2.912717
    15  N    3.630705   2.864164   4.665282   5.243124   4.475872
    16  O    5.656242   4.873847   5.397617   6.078892   6.307535
    17  H    4.864350   4.736946   5.044674   5.377560   5.433792
    18  H    5.480564   4.162835   4.715666   5.729089   6.248575
    19  O    3.378357   4.664828   4.702186   4.289411   3.754229
    20  H    2.503961   3.972260   3.863189   3.424398   3.028066
    21  H    3.629817   4.714231   5.203379   4.914932   4.026764
                   11         12         13         14         15
    11  H    0.000000
    12  C    2.155620   0.000000
    13  H    2.589715   1.084208   0.000000
    14  N    0.994932   1.402934   2.185179   0.000000
    15  N    3.221972   1.337327   2.159290   2.268242   0.000000
    16  O    6.413007   5.755981   6.341567   5.866684   5.232594
    17  H    5.649021   5.256208   5.896564   5.175289   4.874487
    18  H    6.524795   5.702500   6.376382   5.866040   4.979739
    19  O    4.076370   4.261633   4.980919   3.771551   4.222356
    20  H    3.710424   3.881965   4.749594   3.287569   3.730605
    21  H    3.622854   3.626826   4.213299   3.323864   3.732500
                   16         17         18         19         20
    16  O    0.000000
    17  H    0.976723   0.000000
    18  H    0.955572   1.529714   0.000000
    19  O    2.805014   1.850768   3.125333   0.000000
    20  H    3.287927   2.411203   3.341919   0.959352   0.000000
    21  H    2.964534   2.142729   3.355136   0.969916   1.525928
                   21
    21  H    0.000000
 Symmetry turned off by external request.
 Stoichiometry    C7H10N2O2
 Framework group  C1[X(C7H10N2O2)]
 Deg. of freedom    57
 Full point group                 C1      NOp   1
 Rotational constants (GHZ):           1.0968330           0.7767524           0.6449961
 Leave Link  202 at Sat Dec 17 23:29:48 2022, MaxMem=  6710886400 cpu:               0.1 elap:               0.0
 (Enter /data0/home/software/g16/l122.exe)
 Counterpoise: doing full-system calculation.
 Leave Link  122 at Sat Dec 17 23:29:48 2022, MaxMem=  6710886400 cpu:               0.0 elap:               0.0
 (Enter /data0/home/software/g16/l301.exe)
 Standard basis: 6-311+G(2d,p) (5D, 7F)
 Ernie: Thresh=  0.10000D-02 Tol=  0.10000D-05 Strict=F.
   357 basis functions,   542 primitive gaussians,   379 cartesian basis functions
    41 alpha electrons       41 beta electrons
       nuclear repulsion energy       588.8009256559 Hartrees.
 IExCor= 4336 DFT=T Ex+Corr=M062X ExCW=0 ScaHFX=  0.540000
 ScaDFX=  1.000000  1.000000  1.000000  1.000000 ScalE2=  1.000000  1.000000
 IRadAn=      5 IRanWt=     -1 IRanGd=            0 ICorTp=0 IEmpDi=131
 NAtoms=   21 NActive=   21 NUniq=   21 SFac= 1.00D+00 NAtFMM=   60 NAOKFM=F Big=F
 Integral buffers will be    131072 words long.
 Raffenetti 2 integral format.
 Two-electron integral symmetry is turned off.
 R6Disp:  Grimme-D3 Dispersion energy=       -0.0009035280 Hartrees.
 Nuclear repulsion after empirical dispersion term =      588.8000221279 Hartrees.
 Leave Link  301 at Sat Dec 17 23:29:48 2022, MaxMem=  6710886400 cpu:               1.1 elap:               0.1
 (Enter /data0/home/software/g16/l302.exe)
 NPDir=0 NMtPBC=     1 NCelOv=     1 NCel=       1 NClECP=     1 NCelD=      1
         NCelK=      1 NCelE2=     1 NClLst=     1 CellRange=     0.0.
 One-electron integrals computed using PRISM.
 NBasis=   357 RedAO= T EigKep=  1.31D-06  NBF=   357
 NBsUse=   357 1.00D-06 EigRej= -1.00D+00 NBFU=   357
 Precomputing XC quadrature grid using
 IXCGrd= 4 IRadAn=           5 IRanWt=          -1 IRanGd=           0 AccXCQ= 0.00D+00.
 Generated NRdTot=       0 NPtTot=           0 NUsed=           0 NTot=          32
 NSgBfM=   379   379   379   379   379 MxSgAt=    21 MxSgA2=    21.
 Leave Link  302 at Sat Dec 17 23:29:49 2022, MaxMem=  6710886400 cpu:               5.9 elap:               0.3
 (Enter /data0/home/software/g16/l303.exe)
 DipDrv:  MaxL=1.
 Leave Link  303 at Sat Dec 17 23:29:49 2022, MaxMem=  6710886400 cpu:               0.8 elap:               0.1
 (Enter /data0/home/software/g16/l401.exe)
 ExpMin= 4.38D-02 ExpMax= 8.59D+03 ExpMxC= 1.30D+03 IAcc=3 IRadAn=         5 AccDes= 0.00D+00
 Harris functional with IExCor= 1009 and IRadAn=       5 diagonalized for initial guess.
 HarFok:  IExCor= 1009 AccDes= 0.00D+00 IRadAn=         5 IDoV= 1 UseB2=F ITyADJ=14
 ICtDFT=  3500011 ScaDFX=  1.000000  1.000000  1.000000  1.000000
 FoFCou: FMM=F IPFlag=           0 FMFlag=      100000 FMFlg1=           0
         NFxFlg=           0 DoJE=T BraDBF=F KetDBF=T FulRan=T
         wScrn=  0.000000 ICntrl=       500 IOpCl=  0 I1Cent=   200000004 NGrid=           0
         NMat0=    1 NMatS0=      1 NMatT0=    0 NMatD0=    1 NMtDS0=    0 NMtDT0=    0
 Symmetry not used in FoFCou.
 Harris En= -532.447103685979    
 JPrj=0 DoOrth=F DoCkMO=F.
 Leave Link  401 at Sat Dec 17 23:29:50 2022, MaxMem=  6710886400 cpu:              22.5 elap:               1.0
 (Enter /data0/home/software/g16/l502.exe)
 Two-electron integral symmetry not used.
 Closed shell SCF:
 Using DIIS extrapolation, IDIIS=  1040.
 NGot=  6710886400 LenX=  6710587346 LenY=  6710443264
 Requested convergence on RMS density matrix=1.00D-08 within 128 cycles.
 Requested convergence on MAX density matrix=1.00D-06.
 Requested convergence on             energy=1.00D-06.
 No special actions if energy rises.
 Fock matrices will be formed incrementally for  20 cycles.

 Cycle   1  Pass 1  IDiag  1:
 FoFJK:  IHMeth= 1 ICntrl=       0 DoSepK=F KAlg= 0 I1Cent=           0 FoldK=F
 IRaf= 910000000 NMat=       1 IRICut=       1 DoRegI=T DoRafI=F ISym2E= 0 IDoP0=0 IntGTp=1.
 FoFCou: FMM=F IPFlag=           0 FMFlag=      100000 FMFlg1=           0
         NFxFlg=           0 DoJE=F BraDBF=F KetDBF=F FulRan=T
         wScrn=  0.000000 ICntrl=         0 IOpCl=  0 I1Cent=           0 NGrid=           0
         NMat0=    1 NMatS0=      1 NMatT0=    0 NMatD0=    1 NMtDS0=    0 NMtDT0=    0
 Symmetry not used in FoFCou.
 E= -532.339886561275    
 DIIS: error= 2.75D-02 at cycle   1 NSaved=   1.
 NSaved= 1 IEnMin= 1 EnMin= -532.339886561275     IErMin= 1 ErrMin= 2.75D-02
 ErrMax= 2.75D-02  0.00D+00 EMaxC= 1.00D-01 BMatC= 4.71D-01 BMatP= 4.71D-01
 IDIUse=3 WtCom= 7.25D-01 WtEn= 2.75D-01
 Coeff-Com:  0.100D+01
 Coeff-En:   0.100D+01
 Coeff:      0.100D+01
 Gap=     0.309 Goal=   None    Shift=    0.000
 GapD=    0.309 DampG=1.000 DampE=0.500 DampFc=0.5000 IDamp=-1.
 Damping current iteration by 5.00D-01
 RMSDP=6.62D-02 MaxDP=1.17D+01              OVMax= 2.11D-01

 Cycle   2  Pass 1  IDiag  1:
 RMSU=  2.32D-02    CP:  1.86D+00
 E= -532.493786826517     Delta-E=       -0.153900265243 Rises=F Damp=T
 DIIS: error= 8.66D-03 at cycle   2 NSaved=   2.
 NSaved= 2 IEnMin= 2 EnMin= -532.493786826517     IErMin= 2 ErrMin= 8.66D-03
 ErrMax= 8.66D-03  0.00D+00 EMaxC= 1.00D-01 BMatC= 3.49D-02 BMatP= 4.71D-01
 IDIUse=3 WtCom= 9.13D-01 WtEn= 8.66D-02
 Coeff-Com: -0.714D-02 0.101D+01
 Coeff-En:   0.493D-01 0.951D+00
 Coeff:     -0.225D-02 0.100D+01
 Gap=     0.369 Goal=   None    Shift=    0.000
 RMSDP=1.86D-02 MaxDP=3.10D+00 DE=-1.54D-01 OVMax= 1.62D-01

 Cycle   3  Pass 1  IDiag  1:
 RMSU=  5.22D-03    CP:  1.37D+00  4.96D-01
 E= -532.664811279686     Delta-E=       -0.171024453168 Rises=F Damp=F
 DIIS: error= 4.46D-03 at cycle   3 NSaved=   3.
 NSaved= 3 IEnMin= 3 EnMin= -532.664811279686     IErMin= 3 ErrMin= 4.46D-03
 ErrMax= 4.46D-03  0.00D+00 EMaxC= 1.00D-01 BMatC= 1.37D-02 BMatP= 3.49D-02
 IDIUse=3 WtCom= 9.55D-01 WtEn= 4.46D-02
 Coeff-Com: -0.714D-01 0.379D+00 0.693D+00
 Coeff-En:   0.000D+00 0.000D+00 0.100D+01
 Coeff:     -0.682D-01 0.362D+00 0.706D+00
 Gap=     0.281 Goal=   None    Shift=    0.000
 RMSDP=1.42D-03 MaxDP=2.08D-01 DE=-1.71D-01 OVMax= 5.30D-02

 Cycle   4  Pass 1  IDiag  1:
 RMSU=  9.37D-04    CP:  1.39D+00  5.32D-01  9.29D-01
 E= -532.673454945958     Delta-E=       -0.008643666273 Rises=F Damp=F
 DIIS: error= 2.72D-03 at cycle   4 NSaved=   4.
 NSaved= 4 IEnMin= 4 EnMin= -532.673454945958     IErMin= 4 ErrMin= 2.72D-03
 ErrMax= 2.72D-03  0.00D+00 EMaxC= 1.00D-01 BMatC= 3.78D-03 BMatP= 1.37D-02
 IDIUse=3 WtCom= 9.73D-01 WtEn= 2.72D-02
 Coeff-Com: -0.383D-01 0.112D+00 0.399D+00 0.527D+00
 Coeff-En:   0.000D+00 0.000D+00 0.210D+00 0.790D+00
 Coeff:     -0.373D-01 0.109D+00 0.394D+00 0.534D+00
 Gap=     0.281 Goal=   None    Shift=    0.000
 RMSDP=7.24D-04 MaxDP=1.24D-01 DE=-8.64D-03 OVMax= 1.88D-02

 Cycle   5  Pass 1  IDiag  1:
 RMSU=  4.54D-04    CP:  1.37D+00  5.21D-01  9.33D-01  6.60D-01
 E= -532.676679592333     Delta-E=       -0.003224646375 Rises=F Damp=F
 DIIS: error= 6.55D-04 at cycle   5 NSaved=   5.
 NSaved= 5 IEnMin= 5 EnMin= -532.676679592333     IErMin= 5 ErrMin= 6.55D-04
 ErrMax= 6.55D-04  0.00D+00 EMaxC= 1.00D-01 BMatC= 1.71D-04 BMatP= 3.78D-03
 IDIUse=3 WtCom= 9.93D-01 WtEn= 6.55D-03
 Coeff-Com: -0.130D-01 0.271D-01 0.140D+00 0.256D+00 0.590D+00
 Coeff-En:   0.000D+00 0.000D+00 0.000D+00 0.000D+00 0.100D+01
 Coeff:     -0.129D-01 0.269D-01 0.140D+00 0.254D+00 0.592D+00
 Gap=     0.281 Goal=   None    Shift=    0.000
 RMSDP=2.78D-04 MaxDP=3.79D-02 DE=-3.22D-03 OVMax= 4.05D-03

 Cycle   6  Pass 1  IDiag  1:
 RMSU=  1.02D-04    CP:  1.37D+00  5.14D-01  9.36D-01  6.99D-01  8.18D-01
 E= -532.676827306306     Delta-E=       -0.000147713973 Rises=F Damp=F
 DIIS: error= 1.43D-04 at cycle   6 NSaved=   6.
 NSaved= 6 IEnMin= 6 EnMin= -532.676827306306     IErMin= 6 ErrMin= 1.43D-04
 ErrMax= 1.43D-04  0.00D+00 EMaxC= 1.00D-01 BMatC= 9.17D-06 BMatP= 1.71D-04
 IDIUse=3 WtCom= 9.99D-01 WtEn= 1.43D-03
 Coeff-Com: -0.199D-02 0.207D-02 0.247D-01 0.536D-01 0.233D+00 0.688D+00
 Coeff-En:   0.000D+00 0.000D+00 0.000D+00 0.000D+00 0.000D+00 0.100D+01
 Coeff:     -0.199D-02 0.207D-02 0.247D-01 0.535D-01 0.233D+00 0.689D+00
 Gap=     0.281 Goal=   None    Shift=    0.000
 RMSDP=1.01D-04 MaxDP=1.50D-02 DE=-1.48D-04 OVMax= 1.33D-03

 Cycle   7  Pass 1  IDiag  1:
 RMSU=  3.43D-05    CP:  1.37D+00  5.11D-01  9.37D-01  6.99D-01  8.06D-01
                    CP:  8.47D-01
 E= -532.676836367398     Delta-E=       -0.000009061092 Rises=F Damp=F
 DIIS: error= 6.57D-05 at cycle   7 NSaved=   7.
 NSaved= 7 IEnMin= 7 EnMin= -532.676836367398     IErMin= 7 ErrMin= 6.57D-05
 ErrMax= 6.57D-05  0.00D+00 EMaxC= 1.00D-01 BMatC= 9.74D-07 BMatP= 9.17D-06
 IDIUse=1 WtCom= 1.00D+00 WtEn= 0.00D+00
 Coeff-Com:  0.505D-03-0.183D-02-0.274D-02-0.458D-02 0.356D-01 0.252D+00
 Coeff-Com:  0.721D+00
 Coeff:      0.505D-03-0.183D-02-0.274D-02-0.458D-02 0.356D-01 0.252D+00
 Coeff:      0.721D+00
 Gap=     0.281 Goal=   None    Shift=    0.000
 RMSDP=6.05D-05 MaxDP=1.03D-02 DE=-9.06D-06 OVMax= 5.12D-04

 Cycle   8  Pass 1  IDiag  1:
 RMSU=  9.21D-06    CP:  1.36D+00  5.09D-01  9.38D-01  6.97D-01  8.14D-01
                    CP:  8.94D-01  1.15D+00
 E= -532.676837512906     Delta-E=       -0.000001145508 Rises=F Damp=F
 DIIS: error= 3.03D-05 at cycle   8 NSaved=   8.
 NSaved= 8 IEnMin= 8 EnMin= -532.676837512906     IErMin= 8 ErrMin= 3.03D-05
 ErrMax= 3.03D-05  0.00D+00 EMaxC= 1.00D-01 BMatC= 2.50D-07 BMatP= 9.74D-07
 IDIUse=1 WtCom= 1.00D+00 WtEn= 0.00D+00
 Coeff-Com:  0.686D-03-0.138D-02-0.609D-02-0.138D-01-0.282D-01-0.175D-01
 Coeff-Com:  0.363D+00 0.703D+00
 Coeff:      0.686D-03-0.138D-02-0.609D-02-0.138D-01-0.282D-01-0.175D-01
 Coeff:      0.363D+00 0.703D+00
 Gap=     0.281 Goal=   None    Shift=    0.000
 RMSDP=2.42D-05 MaxDP=3.93D-03 DE=-1.15D-06 OVMax= 2.98D-04

 Cycle   9  Pass 1  IDiag  1:
 RMSU=  4.30D-06    CP:  1.36D+00  5.08D-01  9.38D-01  6.97D-01  8.14D-01
                    CP:  9.01D-01  1.23D+00  9.22D-01
 E= -532.676837859915     Delta-E=       -0.000000347009 Rises=F Damp=F
 DIIS: error= 7.44D-06 at cycle   9 NSaved=   9.
 NSaved= 9 IEnMin= 9 EnMin= -532.676837859915     IErMin= 9 ErrMin= 7.44D-06
 ErrMax= 7.44D-06  0.00D+00 EMaxC= 1.00D-01 BMatC= 8.06D-09 BMatP= 2.50D-07
 IDIUse=1 WtCom= 1.00D+00 WtEn= 0.00D+00
 Coeff-Com:  0.186D-04-0.379D-05-0.183D-03-0.962D-03-0.316D-02-0.174D-01
 Coeff-Com: -0.261D-01 0.733D-01 0.974D+00
 Coeff:      0.186D-04-0.379D-05-0.183D-03-0.962D-03-0.316D-02-0.174D-01
 Coeff:     -0.261D-01 0.733D-01 0.974D+00
 Gap=     0.281 Goal=   None    Shift=    0.000
 RMSDP=3.60D-06 MaxDP=4.73D-04 DE=-3.47D-07 OVMax= 9.41D-05

 Cycle  10  Pass 1  IDiag  1:
 RMSU=  1.08D-06    CP:  1.36D+00  5.08D-01  9.38D-01  6.96D-01  8.14D-01
                    CP:  9.03D-01  1.25D+00  9.74D-01  1.23D+00
 E= -532.676837879754     Delta-E=       -0.000000019839 Rises=F Damp=F
 DIIS: error= 3.71D-06 at cycle  10 NSaved=  10.
 NSaved=10 IEnMin=10 EnMin= -532.676837879754     IErMin=10 ErrMin= 3.71D-06
 ErrMax= 3.71D-06  0.00D+00 EMaxC= 1.00D-01 BMatC= 3.37D-09 BMatP= 8.06D-09
 IDIUse=1 WtCom= 1.00D+00 WtEn= 0.00D+00
 Coeff-Com: -0.776D-04 0.175D-03 0.700D-03 0.119D-02 0.209D-02-0.656D-02
 Coeff-Com: -0.608D-01-0.485D-01 0.496D+00 0.615D+00
 Coeff:     -0.776D-04 0.175D-03 0.700D-03 0.119D-02 0.209D-02-0.656D-02
 Coeff:     -0.608D-01-0.485D-01 0.496D+00 0.615D+00
 Gap=     0.281 Goal=   None    Shift=    0.000
 RMSDP=1.27D-06 MaxDP=1.28D-04 DE=-1.98D-08 OVMax= 3.40D-05

 Cycle  11  Pass 1  IDiag  1:
 RMSU=  6.85D-07    CP:  1.36D+00  5.08D-01  9.38D-01  6.96D-01  8.15D-01
                    CP:  9.01D-01  1.25D+00  1.02D+00  1.28D+00  6.74D-01
 E= -532.676837884454     Delta-E=       -0.000000004700 Rises=F Damp=F
 DIIS: error= 1.12D-06 at cycle  11 NSaved=  11.
 NSaved=11 IEnMin=11 EnMin= -532.676837884454     IErMin=11 ErrMin= 1.12D-06
 ErrMax= 1.12D-06  0.00D+00 EMaxC= 1.00D-01 BMatC= 2.04D-10 BMatP= 3.37D-09
 IDIUse=1 WtCom= 1.00D+00 WtEn= 0.00D+00
 Coeff-Com: -0.225D-04 0.462D-04 0.226D-03 0.467D-03 0.106D-02 0.524D-03
 Coeff-Com: -0.153D-01-0.257D-01-0.115D-01 0.169D+00 0.882D+00
 Coeff:     -0.225D-04 0.462D-04 0.226D-03 0.467D-03 0.106D-02 0.524D-03
 Coeff:     -0.153D-01-0.257D-01-0.115D-01 0.169D+00 0.882D+00
 Gap=     0.281 Goal=   None    Shift=    0.000
 RMSDP=2.65D-07 MaxDP=1.81D-05 DE=-4.70D-09 OVMax= 1.93D-05

 Cycle  12  Pass 1  IDiag  1:
 RMSU=  1.52D-07    CP:  1.36D+00  5.08D-01  9.38D-01  6.96D-01  8.15D-01
                    CP:  9.01D-01  1.25D+00  1.03D+00  1.31D+00  7.53D-01
                    CP:  1.09D+00
 E= -532.676837885023     Delta-E=       -0.000000000570 Rises=F Damp=F
 DIIS: error= 3.43D-07 at cycle  12 NSaved=  12.
 NSaved=12 IEnMin=12 EnMin= -532.676837885023     IErMin=12 ErrMin= 3.43D-07
 ErrMax= 3.43D-07  0.00D+00 EMaxC= 1.00D-01 BMatC= 1.57D-11 BMatP= 2.04D-10
 IDIUse=1 WtCom= 1.00D+00 WtEn= 0.00D+00
 Coeff-Com:  0.591D-05-0.129D-04-0.432D-04-0.587D-04-0.117D-03 0.821D-03
 Coeff-Com:  0.452D-02 0.132D-02-0.520D-01-0.454D-01 0.115D+00 0.976D+00
 Coeff:      0.591D-05-0.129D-04-0.432D-04-0.587D-04-0.117D-03 0.821D-03
 Coeff:      0.452D-02 0.132D-02-0.520D-01-0.454D-01 0.115D+00 0.976D+00
 Gap=     0.281 Goal=   None    Shift=    0.000
 RMSDP=1.87D-07 MaxDP=2.44D-05 DE=-5.70D-10 OVMax= 6.57D-06

 Cycle  13  Pass 1  IDiag  1:
 RMSU=  7.28D-08    CP:  1.36D+00  5.08D-01  9.38D-01  6.96D-01  8.15D-01
                    CP:  9.02D-01  1.24D+00  1.03D+00  1.30D+00  7.56D-01
                    CP:  1.22D+00  1.19D+00
 E= -532.676837885063     Delta-E=       -0.000000000039 Rises=F Damp=F
 DIIS: error= 1.01D-07 at cycle  13 NSaved=  13.
 NSaved=13 IEnMin=13 EnMin= -532.676837885063     IErMin=13 ErrMin= 1.01D-07
 ErrMax= 1.01D-07  0.00D+00 EMaxC= 1.00D-01 BMatC= 4.85D-12 BMatP= 1.57D-11
 IDIUse=1 WtCom= 1.00D+00 WtEn= 0.00D+00
 Coeff-Com:  0.470D-05-0.100D-04-0.396D-04-0.657D-04-0.155D-03 0.362D-03
 Coeff-Com:  0.349D-02 0.290D-02-0.217D-01-0.356D-01-0.285D-01 0.443D+00
 Coeff-Com:  0.637D+00
 Coeff:      0.470D-05-0.100D-04-0.396D-04-0.657D-04-0.155D-03 0.362D-03
 Coeff:      0.349D-02 0.290D-02-0.217D-01-0.356D-01-0.285D-01 0.443D+00
 Coeff:      0.637D+00
 Gap=     0.281 Goal=   None    Shift=    0.000
 RMSDP=5.78D-08 MaxDP=6.04D-06 DE=-3.91D-11 OVMax= 1.89D-06

 Cycle  14  Pass 1  IDiag  1:
 RMSU=  2.04D-08    CP:  1.36D+00  5.08D-01  9.38D-01  6.96D-01  8.15D-01
                    CP:  9.02D-01  1.24D+00  1.03D+00  1.30D+00  7.49D-01
                    CP:  1.25D+00  1.23D+00  1.10D+00
 E= -532.676837885090     Delta-E=       -0.000000000027 Rises=F Damp=F
 DIIS: error= 5.08D-08 at cycle  14 NSaved=  14.
 NSaved=14 IEnMin=14 EnMin= -532.676837885090     IErMin=14 ErrMin= 5.08D-08
 ErrMax= 5.08D-08  0.00D+00 EMaxC= 1.00D-01 BMatC= 5.91D-13 BMatP= 4.85D-12
 IDIUse=1 WtCom= 1.00D+00 WtEn= 0.00D+00
 Coeff-Com:  0.136D-06-0.385D-06-0.350D-05-0.532D-05-0.289D-04-0.358D-04
 Coeff-Com:  0.115D-03 0.535D-03 0.428D-02-0.173D-02-0.340D-01-0.756D-01
 Coeff-Com:  0.218D+00 0.889D+00
 Coeff:      0.136D-06-0.385D-06-0.350D-05-0.532D-05-0.289D-04-0.358D-04
 Coeff:      0.115D-03 0.535D-03 0.428D-02-0.173D-02-0.340D-01-0.756D-01
 Coeff:      0.218D+00 0.889D+00
 Gap=     0.281 Goal=   None    Shift=    0.000
 RMSDP=2.46D-08 MaxDP=2.04D-06 DE=-2.73D-11 OVMax= 8.68D-07

 Cycle  15  Pass 1  IDiag  1:
 RMSU=  7.23D-09    CP:  1.36D+00  5.08D-01  9.38D-01  6.96D-01  8.15D-01
                    CP:  9.02D-01  1.24D+00  1.03D+00  1.30D+00  7.49D-01
                    CP:  1.26D+00  1.25D+00  1.25D+00  1.14D+00
 E= -532.676837885066     Delta-E=        0.000000000024 Rises=F Damp=F
 DIIS: error= 1.06D-08 at cycle  15 NSaved=  15.
 NSaved=15 IEnMin=14 EnMin= -532.676837885090     IErMin=15 ErrMin= 1.06D-08
 ErrMax= 1.06D-08  0.00D+00 EMaxC= 1.00D-01 BMatC= 4.94D-14 BMatP= 5.91D-13
 IDIUse=1 WtCom= 1.00D+00 WtEn= 0.00D+00
 Coeff-Com: -0.239D-06 0.455D-06 0.688D-06 0.185D-05-0.253D-05-0.341D-04
 Coeff-Com: -0.159D-03 0.325D-04 0.268D-02 0.140D-02-0.931D-02-0.541D-01
 Coeff-Com:  0.349D-01 0.317D+00 0.707D+00
 Coeff:     -0.239D-06 0.455D-06 0.688D-06 0.185D-05-0.253D-05-0.341D-04
 Coeff:     -0.159D-03 0.325D-04 0.268D-02 0.140D-02-0.931D-02-0.541D-01
 Coeff:      0.349D-01 0.317D+00 0.707D+00
 Gap=     0.281 Goal=   None    Shift=    0.000
 RMSDP=5.11D-09 MaxDP=4.81D-07 DE= 2.39D-11 OVMax= 1.59D-07

 SCF Done:  E(RM062X) =  -532.676837885     A.U. after   15 cycles
            NFock= 15  Conv=0.51D-08     -V/T= 2.0043
 KE= 5.304087158595D+02 PE=-2.421193590722D+03 EE= 7.693080148499D+02
 Leave Link  502 at Sat Dec 17 23:30:30 2022, MaxMem=  6710886400 cpu:             959.5 elap:              40.1
 (Enter /data0/home/software/g16/l601.exe)
 Copying SCF densities to generalized density rwf, IOpCl= 0 IROHF=0.

 **********************************************************************

            Population analysis using the SCF density.

 **********************************************************************

 Alpha  occ. eigenvalues --  -19.63763 -19.58322 -14.82871 -14.76006 -10.63999
 Alpha  occ. eigenvalues --  -10.60768 -10.58979 -10.57201 -10.56503 -10.56372
 Alpha  occ. eigenvalues --  -10.56004  -1.14901  -1.13945  -1.09352  -0.99985
 Alpha  occ. eigenvalues --   -0.97092  -0.86449  -0.85201  -0.73706  -0.72742
 Alpha  occ. eigenvalues --   -0.69904  -0.64519  -0.62294  -0.59074  -0.57720
 Alpha  occ. eigenvalues --   -0.57481  -0.53903  -0.53174  -0.52594  -0.50412
 Alpha  occ. eigenvalues --   -0.49018  -0.44941  -0.44806  -0.43965  -0.43355
 Alpha  occ. eigenvalues --   -0.40534  -0.39053  -0.36197  -0.36150  -0.30693
 Alpha  occ. eigenvalues --   -0.30102
 Alpha virt. eigenvalues --   -0.01982  -0.01021   0.00832   0.01728   0.01764
 Alpha virt. eigenvalues --    0.02794   0.03167   0.03809   0.04475   0.04563
 Alpha virt. eigenvalues --    0.06021   0.06859   0.07688   0.08004   0.08910
 Alpha virt. eigenvalues --    0.09889   0.11407   0.11544   0.12119   0.12617
 Alpha virt. eigenvalues --    0.13564   0.14128   0.15051   0.15486   0.16357
 Alpha virt. eigenvalues --    0.16421   0.16827   0.17242   0.17819   0.18022
 Alpha virt. eigenvalues --    0.19158   0.19535   0.19701   0.20301   0.20549
 Alpha virt. eigenvalues --    0.20953   0.21507   0.22141   0.22548   0.23385
 Alpha virt. eigenvalues --    0.24017   0.24205   0.24434   0.24619   0.25078
 Alpha virt. eigenvalues --    0.25781   0.26033   0.26476   0.26756   0.27520
 Alpha virt. eigenvalues --    0.27934   0.28370   0.29080   0.30993   0.32146
 Alpha virt. eigenvalues --    0.32241   0.33551   0.34344   0.35441   0.35910
 Alpha virt. eigenvalues --    0.37098   0.39440   0.42361   0.43526   0.44334
 Alpha virt. eigenvalues --    0.45922   0.48922   0.50432   0.52176   0.53423
 Alpha virt. eigenvalues --    0.53826   0.54503   0.55556   0.56056   0.56998
 Alpha virt. eigenvalues --    0.57723   0.58185   0.60441   0.60659   0.61875
 Alpha virt. eigenvalues --    0.62481   0.63202   0.64323   0.65583   0.66054
 Alpha virt. eigenvalues --    0.66242   0.67366   0.68157   0.69613   0.69953
 Alpha virt. eigenvalues --    0.70125   0.71363   0.72635   0.74295   0.74845
 Alpha virt. eigenvalues --    0.76247   0.78369   0.79939   0.80271   0.82136
 Alpha virt. eigenvalues --    0.82508   0.83066   0.84027   0.84415   0.84868
 Alpha virt. eigenvalues --    0.85632   0.86525   0.87162   0.87871   0.88777
 Alpha virt. eigenvalues --    0.91511   0.91903   0.92675   0.94831   0.96067
 Alpha virt. eigenvalues --    0.97663   0.99374   1.00298   1.03603   1.05359
 Alpha virt. eigenvalues --    1.06146   1.06823   1.08943   1.11508   1.11639
 Alpha virt. eigenvalues --    1.13483   1.14088   1.14985   1.17935   1.20630
 Alpha virt. eigenvalues --    1.20872   1.21323   1.23431   1.24647   1.26351
 Alpha virt. eigenvalues --    1.26766   1.28123   1.28802   1.31875   1.33480
 Alpha virt. eigenvalues --    1.33704   1.35283   1.35706   1.36169   1.37665
 Alpha virt. eigenvalues --    1.38589   1.40876   1.41569   1.42870   1.45925
 Alpha virt. eigenvalues --    1.46840   1.46994   1.50817   1.51932   1.52640
 Alpha virt. eigenvalues --    1.54988   1.55628   1.57390   1.59937   1.61300
 Alpha virt. eigenvalues --    1.62577   1.64109   1.67824   1.68116   1.72011
 Alpha virt. eigenvalues --    1.73404   1.73972   1.76098   1.76922   1.79128
 Alpha virt. eigenvalues --    1.81517   1.83931   1.85484   1.87473   1.89015
 Alpha virt. eigenvalues --    1.91564   1.94802   1.97230   1.97940   2.04160
 Alpha virt. eigenvalues --    2.05158   2.06616   2.07711   2.08950   2.11302
 Alpha virt. eigenvalues --    2.12990   2.14007   2.18896   2.27949   2.28817
 Alpha virt. eigenvalues --    2.31218   2.35240   2.42410   2.44890   2.45918
 Alpha virt. eigenvalues --    2.48782   2.54451   2.56518   2.58818   2.62022
 Alpha virt. eigenvalues --    2.62353   2.63573   2.65132   2.69769   2.70232
 Alpha virt. eigenvalues --    2.76401   2.77535   2.77877   2.79690   2.82389
 Alpha virt. eigenvalues --    2.83567   2.84856   2.89223   2.89363   2.91206
 Alpha virt. eigenvalues --    2.92808   2.95336   2.96678   2.98119   3.05954
 Alpha virt. eigenvalues --    3.07753   3.09270   3.10026   3.14730   3.15127
 Alpha virt. eigenvalues --    3.15365   3.20161   3.21570   3.27546   3.27829
 Alpha virt. eigenvalues --    3.28200   3.29106   3.32962   3.34203   3.36831
 Alpha virt. eigenvalues --    3.37255   3.37374   3.38805   3.41313   3.42500
 Alpha virt. eigenvalues --    3.46719   3.46940   3.48304   3.51555   3.53862
 Alpha virt. eigenvalues --    3.57455   3.57613   3.58475   3.59174   3.61107
 Alpha virt. eigenvalues --    3.62444   3.65289   3.69354   3.72870   3.73246
 Alpha virt. eigenvalues --    3.76391   3.77508   3.80200   3.86284   3.90595
 Alpha virt. eigenvalues --    3.92767   3.94170   3.94325   3.97391   3.99523
 Alpha virt. eigenvalues --    3.99928   4.02585   4.06932   4.08491   4.23558
 Alpha virt. eigenvalues --    4.42186   4.56521   4.63736   4.69683   4.73524
 Alpha virt. eigenvalues --    4.89307   4.96662   5.01071   5.01438   5.03387
 Alpha virt. eigenvalues --    5.08679   5.12451   5.16867   5.19434   5.21523
 Alpha virt. eigenvalues --    5.26412   5.29977   5.40964   5.44451   5.53366
 Alpha virt. eigenvalues --    5.55786   5.57571   5.64123   5.95326   5.99077
 Alpha virt. eigenvalues --    6.78822   6.82159   6.83081   6.85373   6.89571
 Alpha virt. eigenvalues --    6.91383   6.96760   6.99503   7.11453   7.19075
 Alpha virt. eigenvalues --   23.77735  24.00796  24.05514  24.10466  24.11692
 Alpha virt. eigenvalues --   24.22588  24.26317  35.73221  35.80115  50.00343
 Alpha virt. eigenvalues --   50.04346
          Condensed to atoms (all electrons):
               1          2          3          4          5          6
     1  C   18.704472  -9.811229   0.477092  -1.648774   0.775556  -2.988286
     2  C   -9.811229  17.690292  -4.643295   1.863942  -1.655672   1.633035
     3  C    0.477092  -4.643295  12.326552  -1.257637   1.191973  -1.144376
     4  C   -1.648774   1.863942  -1.257637   6.253661  -0.048681   0.582004
     5  C    0.775556  -1.655672   1.191973  -0.048681   5.491498   0.095963
     6  C   -2.988286   1.633035  -1.144376   0.582004   0.095963   8.194847
     7  H    0.023811  -0.024329   0.383060  -0.031317   0.013044  -0.016950
     8  H   -0.011908   0.043912  -0.064575   0.396977  -0.040875   0.022697
     9  H    0.044297   0.000475   0.007097  -0.032584   0.392620  -0.064590
    10  H   -0.052488  -0.027519  -0.021342   0.024277   0.014869   0.407841
    11  H   -0.141776   0.145553   0.011265   0.002527  -0.011080  -0.043490
    12  C   -0.707554   0.275165  -0.006665   0.016613  -0.007306  -0.067977
    13  H   -0.034643   0.050789   0.034676  -0.000886   0.001789  -0.005167
    14  N   -0.114737   0.330680  -0.148025   0.044122  -0.036525  -0.004379
    15  N    1.258201  -0.244121  -0.787068  -0.057485   0.005127  -0.086542
    16  O   -0.009090  -0.004288   0.029413  -0.011907   0.002553   0.001500
    17  H    0.015870  -0.018031   0.008951  -0.004668  -0.000171  -0.003773
    18  H    0.004101  -0.000083   0.003778  -0.006128   0.000603  -0.001013
    19  O   -0.164158   0.164767  -0.067611   0.040904  -0.003334   0.061682
    20  H    0.055845  -0.032814   0.001857   0.008097  -0.002057  -0.028593
    21  H    0.071710  -0.033735  -0.000140   0.003400  -0.001908  -0.015005
               7          8          9         10         11         12
     1  C    0.023811  -0.011908   0.044297  -0.052488  -0.141776  -0.707554
     2  C   -0.024329   0.043912   0.000475  -0.027519   0.145553   0.275165
     3  C    0.383060  -0.064575   0.007097  -0.021342   0.011265  -0.006665
     4  C   -0.031317   0.396977  -0.032584   0.024277   0.002527   0.016613
     5  C    0.013044  -0.040875   0.392620   0.014869  -0.011080  -0.007306
     6  C   -0.016950   0.022697  -0.064590   0.407841  -0.043490  -0.067977
     7  H    0.504619  -0.004633  -0.000212   0.000074   0.000014  -0.000039
     8  H   -0.004633   0.531662  -0.004972  -0.000263  -0.000001   0.000572
     9  H   -0.000212  -0.004972   0.529952  -0.004821  -0.000010   0.000437
    10  H    0.000074  -0.000263  -0.004821   0.522107   0.001619   0.003777
    11  H    0.000014  -0.000001  -0.000010   0.001619   0.390222  -0.016171
    12  C   -0.000039   0.000572   0.000437   0.003777  -0.016171   5.169122
    13  H   -0.000034  -0.000000  -0.000001  -0.000015  -0.001141   0.421474
    14  N   -0.000918   0.000456  -0.000467  -0.001482   0.390892   0.387013
    15  N    0.006440  -0.000730   0.000296   0.000954  -0.008424   0.368944
    16  O   -0.000181  -0.000020   0.000005   0.000001   0.000001  -0.000272
    17  H    0.000018  -0.000008  -0.000005  -0.000002  -0.000001  -0.000234
    18  H   -0.000091  -0.000001   0.000001   0.000001   0.000000   0.000454
    19  O   -0.000119   0.000068   0.000101  -0.000636  -0.000507   0.005380
    20  H    0.000152  -0.000066  -0.000129  -0.000205  -0.000201  -0.010313
    21  H    0.000037  -0.000009   0.000000   0.000064  -0.000381  -0.007121
              13         14         15         16         17         18
     1  C   -0.034643  -0.114737   1.258201  -0.009090   0.015870   0.004101
     2  C    0.050789   0.330680  -0.244121  -0.004288  -0.018031  -0.000083
     3  C    0.034676  -0.148025  -0.787068   0.029413   0.008951   0.003778
     4  C   -0.000886   0.044122  -0.057485  -0.011907  -0.004668  -0.006128
     5  C    0.001789  -0.036525   0.005127   0.002553  -0.000171   0.000603
     6  C   -0.005167  -0.004379  -0.086542   0.001500  -0.003773  -0.001013
     7  H   -0.000034  -0.000918   0.006440  -0.000181   0.000018  -0.000091
     8  H   -0.000000   0.000456  -0.000730  -0.000020  -0.000008  -0.000001
     9  H   -0.000001  -0.000467   0.000296   0.000005  -0.000005   0.000001
    10  H   -0.000015  -0.001482   0.000954   0.000001  -0.000002   0.000001
    11  H   -0.001141   0.390892  -0.008424   0.000001  -0.000001   0.000000
    12  C    0.421474   0.387013   0.368944  -0.000272  -0.000234   0.000454
    13  H    0.492826  -0.051856  -0.062868   0.000005   0.000000  -0.000000
    14  N   -0.051856   6.534795  -0.014096   0.000553  -0.000646  -0.000080
    15  N   -0.062868  -0.014096   6.931049  -0.003667   0.001274  -0.000175
    16  O    0.000005   0.000553  -0.003667   7.984714   0.326101   0.318227
    17  H    0.000000  -0.000646   0.001274   0.326101   0.325151  -0.033880
    18  H   -0.000000  -0.000080  -0.000175   0.318227  -0.033880   0.445666
    19  O    0.000011   0.006274  -0.020886   0.011724   0.004319   0.010166
    20  H   -0.000001  -0.002125   0.001341  -0.008194   0.000635  -0.002429
    21  H    0.000016  -0.009334   0.003876  -0.008190  -0.000490  -0.001028
              19         20         21
     1  C   -0.164158   0.055845   0.071710
     2  C    0.164767  -0.032814  -0.033735
     3  C   -0.067611   0.001857  -0.000140
     4  C    0.040904   0.008097   0.003400
     5  C   -0.003334  -0.002057  -0.001908
     6  C    0.061682  -0.028593  -0.015005
     7  H   -0.000119   0.000152   0.000037
     8  H    0.000068  -0.000066  -0.000009
     9  H    0.000101  -0.000129   0.000000
    10  H   -0.000636  -0.000205   0.000064
    11  H   -0.000507  -0.000201  -0.000381
    12  C    0.005380  -0.010313  -0.007121
    13  H    0.000011  -0.000001   0.000016
    14  N    0.006274  -0.002125  -0.009334
    15  N   -0.020886   0.001341   0.003876
    16  O    0.011724  -0.008194  -0.008190
    17  H    0.004319   0.000635  -0.000490
    18  H    0.010166  -0.002429  -0.001028
    19  O    7.902959   0.320070   0.310265
    20  H    0.320070   0.371169  -0.023647
    21  H    0.310265  -0.023647   0.419878
 Mulliken charges:
               1
     1  C    0.253689
     2  C    0.296508
     3  C   -0.334982
     4  C   -0.136457
     5  C   -0.177985
     6  C   -0.529426
     7  H    0.147554
     8  H    0.131719
     9  H    0.132510
    10  H    0.133188
    11  H    0.281089
    12  C    0.174701
    13  H    0.155027
    14  N   -0.310115
    15  N   -0.291440
    16  O   -0.628990
    17  H    0.379589
    18  H    0.261910
    19  O   -0.581439
    20  H    0.351607
    21  H    0.291744
 Sum of Mulliken charges =  -0.00000
 Mulliken charges with hydrogens summed into heavy atoms:
               1
     1  C    0.253689
     2  C    0.296508
     3  C   -0.187428
     4  C   -0.004738
     5  C   -0.045475
     6  C   -0.396237
    12  C    0.329728
    14  N   -0.029026
    15  N   -0.291440
    16  O    0.012508
    19  O    0.061912
         Mulliken charges condensed to fragments:
      1     -0.074420
      2      0.012508
      3      0.061912
 Electronic spatial extent (au):  <R**2>=         106008.5396
 Charge=             -0.0000 electrons
 Dipole moment (field-independent basis, Debye):
    X=             -1.2238    Y=             -0.2267    Z=              5.7284  Tot=              5.8620
 Quadrupole moment (field-independent basis, Debye-Ang):
   XX=            -85.1582   YY=            -75.8626   ZZ=             44.0771
   XY=             -9.4062   XZ=             47.7880   YZ=             79.9823
 Traceless Quadrupole moment (field-independent basis, Debye-Ang):
   XX=            -46.1770   YY=            -36.8814   ZZ=             83.0584
   XY=             -9.4062   XZ=             47.7880   YZ=             79.9823
 Octapole moment (field-independent basis, Debye-Ang**2):
  XXX=          -1565.6293  YYY=          -3174.8393  ZZZ=           -317.5087  XYY=           -486.3807
  XXY=          -1101.3620  XXZ=           -267.5262  XZZ=            563.6685  YZZ=            612.6642
  YYZ=            443.2134  XYZ=            770.5001
 Hexadecapole moment (field-independent basis, Debye-Ang**3):
 XXXX=         -21328.8564 YYYY=         -91991.7428 ZZZZ=         -17407.1727 XXXY=         -21211.5224
 XXXZ=         -10051.7839 YYYX=         -19050.5871 YYYZ=         -13987.9440 ZZZX=           2247.0336
 ZZZY=          -4867.1094 XXYY=         -17492.6064 XXZZ=           -982.7737 YYZZ=           1695.9499
 XXYZ=          -2630.8404 YYXZ=           7800.9111 ZZXY=           9002.0836
 N-N= 5.888000221279D+02 E-N=-2.421193590324D+03  KE= 5.304087158595D+02
 No NMR shielding tensors so no spin-rotation constants.
 Leave Link  601 at Sat Dec 17 23:30:30 2022, MaxMem=  6710886400 cpu:               2.6 elap:               0.1
 (Enter /data0/home/software/g16/l122.exe)
 CPIOFr:  IOpCl= 0 IRwI=-1 IRwCP=  731 ICalc= -1 LCPTot=      197202 Len1MO=      517103 IndFrg=      197202
 CPIOFr:  IOpCl= 0 IRwI=-1 IRwCP=  731 ICalc=  0 LCPTot=      197202 Len1MO=      517103 IndFrg=      714305
 Counterpoise: doing calculation for fragment   1 using the basis set of the full-system, NewBq=T
 Leave Link  122 at Sat Dec 17 23:30:30 2022, MaxMem=  6710886400 cpu:               0.2 elap:               0.0
 (Enter /data0/home/software/g16/l301.exe)
 Basis read from rwf:  (5D, 7F)
 No pseudopotential information found on rwf file.
   357 basis functions,   542 primitive gaussians,   379 cartesian basis functions
    31 alpha electrons       31 beta electrons
       nuclear repulsion energy       401.4620850755 Hartrees.
 IExCor= 4336 DFT=T Ex+Corr=M062X ExCW=0 ScaHFX=  0.540000
 ScaDFX=  1.000000  1.000000  1.000000  1.000000 ScalE2=  1.000000  1.000000
 IRadAn=      5 IRanWt=     -1 IRanGd=            0 ICorTp=0 IEmpDi=131
 NAtoms=   21 NActive=   21 NUniq=   21 SFac= 1.00D+00 NAtFMM=   60 NAOKFM=F Big=F
 Integral buffers will be    131072 words long.
 Raffenetti 2 integral format.
 Two-electron integral symmetry is turned off.
 R6Disp:  Grimme-D3 Dispersion energy=       -0.0002903656 Hartrees.
 Nuclear repulsion after empirical dispersion term =      401.4617947099 Hartrees.
 No density basis found on file   718.
 Leave Link  301 at Sat Dec 17 23:30:30 2022, MaxMem=  6710886400 cpu:               1.3 elap:               0.1
 (Enter /data0/home/software/g16/l302.exe)
 NPDir=0 NMtPBC=     1 NCelOv=     1 NCel=       1 NClECP=     1 NCelD=      1
         NCelK=      1 NCelE2=     1 NClLst=     1 CellRange=     0.0.
 One-electron integrals computed using PRISM.
 NBasis=   357 RedAO= T EigKep=  1.31D-06  NBF=   357
 NBsUse=   357 1.00D-06 EigRej= -1.00D+00 NBFU=   357
 Precomputing XC quadrature grid using
 IXCGrd= 4 IRadAn=           5 IRanWt=          -1 IRanGd=           0 AccXCQ= 0.00D+00.
 Generated NRdTot=       0 NPtTot=           0 NUsed=           0 NTot=          32
 NSgBfM=   379   379   379   379   379 MxSgAt=    21 MxSgA2=    21.
 Leave Link  302 at Sat Dec 17 23:30:30 2022, MaxMem=  6710886400 cpu:               5.9 elap:               0.3
 (Enter /data0/home/software/g16/l303.exe)
 DipDrv:  MaxL=1.
 Leave Link  303 at Sat Dec 17 23:30:30 2022, MaxMem=  6710886400 cpu:               0.8 elap:               0.1
 (Enter /data0/home/software/g16/l401.exe)
 ExpMin= 4.38D-02 ExpMax= 8.59D+03 ExpMxC= 1.30D+03 IAcc=3 IRadAn=         5 AccDes= 0.00D+00
 Harris functional with IExCor= 1009 and IRadAn=       5 diagonalized for initial guess.
 HarFok:  IExCor= 1009 AccDes= 0.00D+00 IRadAn=         5 IDoV= 1 UseB2=F ITyADJ=14
 ICtDFT=  3500011 ScaDFX=  1.000000  1.000000  1.000000  1.000000
 FoFCou: FMM=F IPFlag=           0 FMFlag=      100000 FMFlg1=           0
         NFxFlg=           0 DoJE=T BraDBF=F KetDBF=T FulRan=T
         wScrn=  0.000000 ICntrl=       500 IOpCl=  0 I1Cent=   200000004 NGrid=           0
         NMat0=    1 NMatS0=      1 NMatT0=    0 NMatD0=    1 NMtDS0=    0 NMtDT0=    0
 Symmetry not used in FoFCou.
 Harris En= -379.613477537201    
 JPrj=0 DoOrth=F DoCkMO=F.
 Leave Link  401 at Sat Dec 17 23:30:31 2022, MaxMem=  6710886400 cpu:              22.2 elap:               1.0
 (Enter /data0/home/software/g16/l502.exe)
 Two-electron integral symmetry not used.
 Closed shell SCF:
 Using DIIS extrapolation, IDIIS=  1040.
 NGot=  6710886400 LenX=  6710587346 LenY=  6710443264
 Requested convergence on RMS density matrix=1.00D-08 within 128 cycles.
 Requested convergence on MAX density matrix=1.00D-06.
 Requested convergence on             energy=1.00D-06.
 No special actions if energy rises.
 Fock matrices will be formed incrementally for  20 cycles.

 Cycle   1  Pass 1  IDiag  1:
 FoFJK:  IHMeth= 1 ICntrl=       0 DoSepK=F KAlg= 0 I1Cent=           0 FoldK=F
 IRaf= 910000000 NMat=       1 IRICut=       1 DoRegI=T DoRafI=F ISym2E= 0 IDoP0=0 IntGTp=1.
 FoFCou: FMM=F IPFlag=           0 FMFlag=      100000 FMFlg1=           0
         NFxFlg=           0 DoJE=F BraDBF=F KetDBF=F FulRan=T
         wScrn=  0.000000 ICntrl=         0 IOpCl=  0 I1Cent=           0 NGrid=           0
         NMat0=    1 NMatS0=      1 NMatT0=    0 NMatD0=    1 NMtDS0=    0 NMtDT0=    0
 Symmetry not used in FoFCou.
 E= -379.612282130750    
 DIIS: error= 1.99D-02 at cycle   1 NSaved=   1.
 NSaved= 1 IEnMin= 1 EnMin= -379.612282130750     IErMin= 1 ErrMin= 1.99D-02
 ErrMax= 1.99D-02  0.00D+00 EMaxC= 1.00D-01 BMatC= 2.48D-01 BMatP= 2.48D-01
 IDIUse=3 WtCom= 8.01D-01 WtEn= 1.99D-01
 Coeff-Com:  0.100D+01
 Coeff-En:   0.100D+01
 Coeff:      0.100D+01
 Gap=     0.308 Goal=   None    Shift=    0.000
 GapD=    0.308 DampG=1.000 DampE=0.500 DampFc=0.5000 IDamp=-1.
 Damping current iteration by 5.00D-01
 RMSDP=2.10D-02 MaxDP=4.13D+00              OVMax= 2.13D-01

 Cycle   2  Pass 1  IDiag  1:
 RMSU=  9.25D-03    CP:  1.24D+00
 E= -379.708739943282     Delta-E=       -0.096457812532 Rises=F Damp=T
 DIIS: error= 6.56D-03 at cycle   2 NSaved=   2.
 NSaved= 2 IEnMin= 2 EnMin= -379.708739943282     IErMin= 2 ErrMin= 6.56D-03
 ErrMax= 6.56D-03  0.00D+00 EMaxC= 1.00D-01 BMatC= 2.62D-02 BMatP= 2.48D-01
 IDIUse=3 WtCom= 9.34D-01 WtEn= 6.56D-02
 Coeff-Com: -0.935D-01 0.109D+01
 Coeff-En:   0.000D+00 0.100D+01
 Coeff:     -0.873D-01 0.109D+01
 Gap=     0.304 Goal=   None    Shift=    0.000
 RMSDP=8.46D-03 MaxDP=1.28D+00 DE=-9.65D-02 OVMax= 1.74D-01

 Cycle   3  Pass 1  IDiag  1:
 RMSU=  5.21D-03    CP:  9.93D-01  5.37D-01
 E= -379.800435195980     Delta-E=       -0.091695252698 Rises=F Damp=F
 DIIS: error= 5.80D-03 at cycle   3 NSaved=   3.
 NSaved= 3 IEnMin= 3 EnMin= -379.800435195980     IErMin= 3 ErrMin= 5.80D-03
 ErrMax= 5.80D-03  0.00D+00 EMaxC= 1.00D-01 BMatC= 1.74D-02 BMatP= 2.62D-02
 IDIUse=3 WtCom= 9.42D-01 WtEn= 5.80D-02
 Coeff-Com: -0.138D+00 0.537D+00 0.601D+00
 Coeff-En:   0.000D+00 0.000D+00 0.100D+01
 Coeff:     -0.130D+00 0.506D+00 0.624D+00
 Gap=     0.281 Goal=   None    Shift=    0.000
 RMSDP=1.17D-03 MaxDP=1.26D-01 DE=-9.17D-02 OVMax= 6.00D-02

 Cycle   4  Pass 1  IDiag  1:
 RMSU=  1.08D-03    CP:  9.85D-01  5.68D-01  9.40D-01
 E= -379.815024664664     Delta-E=       -0.014589468684 Rises=F Damp=F
 DIIS: error= 2.16D-03 at cycle   4 NSaved=   4.
 NSaved= 4 IEnMin= 4 EnMin= -379.815024664664     IErMin= 4 ErrMin= 2.16D-03
 ErrMax= 2.16D-03  0.00D+00 EMaxC= 1.00D-01 BMatC= 2.49D-03 BMatP= 1.74D-02
 IDIUse=3 WtCom= 9.78D-01 WtEn= 2.16D-02
 Coeff-Com: -0.575D-01 0.148D+00 0.331D+00 0.578D+00
 Coeff-En:   0.000D+00 0.000D+00 0.721D-01 0.928D+00
 Coeff:     -0.562D-01 0.145D+00 0.326D+00 0.586D+00
 Gap=     0.279 Goal=   None    Shift=    0.000
 RMSDP=4.70D-04 MaxDP=5.79D-02 DE=-1.46D-02 OVMax= 1.33D-02

 Cycle   5  Pass 1  IDiag  1:
 RMSU=  2.79D-04    CP:  9.79D-01  5.51D-01  9.24D-01  7.09D-01
 E= -379.817147310183     Delta-E=       -0.002122645518 Rises=F Damp=F
 DIIS: error= 4.85D-04 at cycle   5 NSaved=   5.
 NSaved= 5 IEnMin= 5 EnMin= -379.817147310183     IErMin= 5 ErrMin= 4.85D-04
 ErrMax= 4.85D-04  0.00D+00 EMaxC= 1.00D-01 BMatC= 9.76D-05 BMatP= 2.49D-03
 IDIUse=3 WtCom= 9.95D-01 WtEn= 4.85D-03
 Coeff-Com: -0.195D-01 0.417D-01 0.119D+00 0.266D+00 0.593D+00
 Coeff-En:   0.000D+00 0.000D+00 0.000D+00 0.000D+00 0.100D+01
 Coeff:     -0.195D-01 0.415D-01 0.118D+00 0.265D+00 0.595D+00
 Gap=     0.279 Goal=   None    Shift=    0.000
 RMSDP=1.02D-04 MaxDP=6.70D-03 DE=-2.12D-03 OVMax= 3.98D-03

 Cycle   6  Pass 1  IDiag  1:
 RMSU=  8.03D-05    CP:  9.79D-01  5.48D-01  9.27D-01  7.34D-01  8.46D-01
 E= -379.817236898223     Delta-E=       -0.000089588040 Rises=F Damp=F
 DIIS: error= 1.78D-04 at cycle   6 NSaved=   6.
 NSaved= 6 IEnMin= 6 EnMin= -379.817236898223     IErMin= 6 ErrMin= 1.78D-04
 ErrMax= 1.78D-04  0.00D+00 EMaxC= 1.00D-01 BMatC= 1.13D-05 BMatP= 9.76D-05
 IDIUse=3 WtCom= 9.98D-01 WtEn= 1.78D-03
 Coeff-Com: -0.268D-02 0.324D-02 0.189D-01 0.547D-01 0.285D+00 0.640D+00
 Coeff-En:   0.000D+00 0.000D+00 0.000D+00 0.000D+00 0.222D-01 0.978D+00
 Coeff:     -0.268D-02 0.324D-02 0.189D-01 0.546D-01 0.285D+00 0.641D+00
 Gap=     0.279 Goal=   None    Shift=    0.000
 RMSDP=6.34D-05 MaxDP=8.90D-03 DE=-8.96D-05 OVMax= 1.45D-03

 Cycle   7  Pass 1  IDiag  1:
 RMSU=  3.47D-05    CP:  9.78D-01  5.43D-01  9.29D-01  7.45D-01  8.44D-01
                    CP:  8.89D-01
 E= -379.817249364773     Delta-E=       -0.000012466551 Rises=F Damp=F
 DIIS: error= 3.74D-05 at cycle   7 NSaved=   7.
 NSaved= 7 IEnMin= 7 EnMin= -379.817249364773     IErMin= 7 ErrMin= 3.74D-05
 ErrMax= 3.74D-05  0.00D+00 EMaxC= 1.00D-01 BMatC= 4.06D-07 BMatP= 1.13D-05
 IDIUse=1 WtCom= 1.00D+00 WtEn= 0.00D+00
 Coeff-Com:  0.140D-02-0.347D-02-0.638D-02-0.159D-01-0.184D-02 0.100D+00
 Coeff-Com:  0.926D+00
 Coeff:      0.140D-02-0.347D-02-0.638D-02-0.159D-01-0.184D-02 0.100D+00
 Coeff:      0.926D+00
 Gap=     0.279 Goal=   None    Shift=    0.000
 RMSDP=2.71D-05 MaxDP=4.45D-03 DE=-1.25D-05 OVMax= 4.63D-04

 Cycle   8  Pass 1  IDiag  1:
 RMSU=  6.05D-06    CP:  9.78D-01  5.40D-01  9.29D-01  7.46D-01  8.56D-01
                    CP:  9.52D-01  1.21D+00
 E= -379.817250009133     Delta-E=       -0.000000644359 Rises=F Damp=F
 DIIS: error= 2.64D-05 at cycle   8 NSaved=   8.
 NSaved= 8 IEnMin= 8 EnMin= -379.817250009133     IErMin= 8 ErrMin= 2.64D-05
 ErrMax= 2.64D-05  0.00D+00 EMaxC= 1.00D-01 BMatC= 1.78D-07 BMatP= 4.06D-07
 IDIUse=1 WtCom= 1.00D+00 WtEn= 0.00D+00
 Coeff-Com:  0.105D-02-0.217D-02-0.521D-02-0.148D-01-0.330D-01-0.213D-01
 Coeff-Com:  0.495D+00 0.581D+00
 Coeff:      0.105D-02-0.217D-02-0.521D-02-0.148D-01-0.330D-01-0.213D-01
 Coeff:      0.495D+00 0.581D+00
 Gap=     0.280 Goal=   None    Shift=    0.000
 RMSDP=6.35D-06 MaxDP=7.77D-04 DE=-6.44D-07 OVMax= 2.16D-04

 Cycle   9  Pass 1  IDiag  1:
 RMSU=  3.10D-06    CP:  9.78D-01  5.40D-01  9.30D-01  7.46D-01  8.56D-01
                    CP:  9.66D-01  1.24D+00  1.17D+00
 E= -379.817250229053     Delta-E=       -0.000000219921 Rises=F Damp=F
 DIIS: error= 7.54D-06 at cycle   9 NSaved=   9.
 NSaved= 9 IEnMin= 9 EnMin= -379.817250229053     IErMin= 9 ErrMin= 7.54D-06
 ErrMax= 7.54D-06  0.00D+00 EMaxC= 1.00D-01 BMatC= 8.38D-09 BMatP= 1.78D-07
 IDIUse=1 WtCom= 1.00D+00 WtEn= 0.00D+00
 Coeff-Com: -0.529D-04 0.166D-03 0.417D-03 0.334D-03-0.273D-02-0.150D-01
 Coeff-Com: -0.672D-01 0.103D+00 0.981D+00
 Coeff:     -0.529D-04 0.166D-03 0.417D-03 0.334D-03-0.273D-02-0.150D-01
 Coeff:     -0.672D-01 0.103D+00 0.981D+00
 Gap=     0.280 Goal=   None    Shift=    0.000
 RMSDP=2.01D-06 MaxDP=1.60D-04 DE=-2.20D-07 OVMax= 9.38D-05

 Cycle  10  Pass 1  IDiag  1:
 RMSU=  8.00D-07    CP:  9.78D-01  5.40D-01  9.30D-01  7.45D-01  8.57D-01
                    CP:  9.65D-01  1.25D+00  1.34D+00  1.18D+00
 E= -379.817250250641     Delta-E=       -0.000000021588 Rises=F Damp=F
 DIIS: error= 2.70D-06 at cycle  10 NSaved=  10.
 NSaved=10 IEnMin=10 EnMin= -379.817250250641     IErMin=10 ErrMin= 2.70D-06
 ErrMax= 2.70D-06  0.00D+00 EMaxC= 1.00D-01 BMatC= 9.66D-10 BMatP= 8.38D-09
 IDIUse=1 WtCom= 1.00D+00 WtEn= 0.00D+00
 Coeff-Com: -0.982D-04 0.221D-03 0.592D-03 0.128D-02 0.164D-02-0.263D-02
 Coeff-Com: -0.625D-01-0.220D-01 0.284D+00 0.799D+00
 Coeff:     -0.982D-04 0.221D-03 0.592D-03 0.128D-02 0.164D-02-0.263D-02
 Coeff:     -0.625D-01-0.220D-01 0.284D+00 0.799D+00
 Gap=     0.280 Goal=   None    Shift=    0.000
 RMSDP=7.22D-07 MaxDP=4.87D-05 DE=-2.16D-08 OVMax= 3.54D-05

 Cycle  11  Pass 1  IDiag  1:
 RMSU=  2.57D-07    CP:  9.78D-01  5.40D-01  9.30D-01  7.45D-01  8.56D-01
                    CP:  9.65D-01  1.25D+00  1.40D+00  1.26D+00  1.00D+00
 E= -379.817250252755     Delta-E=       -0.000000002114 Rises=F Damp=F
 DIIS: error= 1.00D-06 at cycle  11 NSaved=  11.
 NSaved=11 IEnMin=11 EnMin= -379.817250252755     IErMin=11 ErrMin= 1.00D-06
 ErrMax= 1.00D-06  0.00D+00 EMaxC= 1.00D-01 BMatC= 2.66D-10 BMatP= 9.66D-10
 IDIUse=1 WtCom= 1.00D+00 WtEn= 0.00D+00
 Coeff-Com: -0.322D-04 0.681D-04 0.203D-03 0.508D-03 0.987D-03 0.906D-03
 Coeff-Com: -0.193D-01-0.276D-01-0.121D-01 0.383D+00 0.673D+00
 Coeff:     -0.322D-04 0.681D-04 0.203D-03 0.508D-03 0.987D-03 0.906D-03
 Coeff:     -0.193D-01-0.276D-01-0.121D-01 0.383D+00 0.673D+00
 Gap=     0.280 Goal=   None    Shift=    0.000
 RMSDP=1.91D-07 MaxDP=1.20D-05 DE=-2.11D-09 OVMax= 1.46D-05

 Cycle  12  Pass 1  IDiag  1:
 RMSU=  1.35D-07    CP:  9.78D-01  5.40D-01  9.30D-01  7.45D-01  8.56D-01
                    CP:  9.65D-01  1.25D+00  1.40D+00  1.27D+00  1.08D+00
                    CP:  1.06D+00
 E= -379.817250253182     Delta-E=       -0.000000000426 Rises=F Damp=F
 DIIS: error= 2.91D-07 at cycle  12 NSaved=  12.
 NSaved=12 IEnMin=12 EnMin= -379.817250253182     IErMin=12 ErrMin= 2.91D-07
 ErrMax= 2.91D-07  0.00D+00 EMaxC= 1.00D-01 BMatC= 1.48D-11 BMatP= 2.66D-10
 IDIUse=1 WtCom= 1.00D+00 WtEn= 0.00D+00
 Coeff-Com:  0.831D-05-0.189D-04-0.467D-04-0.801D-04-0.744D-04 0.709D-03
 Coeff-Com:  0.566D-02-0.443D-02-0.457D-01-0.300D-01 0.133D+00 0.941D+00
 Coeff:      0.831D-05-0.189D-04-0.467D-04-0.801D-04-0.744D-04 0.709D-03
 Coeff:      0.566D-02-0.443D-02-0.457D-01-0.300D-01 0.133D+00 0.941D+00
 Gap=     0.280 Goal=   None    Shift=    0.000
 RMSDP=1.47D-07 MaxDP=1.36D-05 DE=-4.26D-10 OVMax= 6.18D-06

 Cycle  13  Pass 1  IDiag  1:
 RMSU=  5.60D-08    CP:  9.78D-01  5.40D-01  9.30D-01  7.45D-01  8.56D-01
                    CP:  9.66D-01  1.25D+00  1.39D+00  1.27D+00  1.12D+00
                    CP:  1.13D+00  1.43D+00
 E= -379.817250253235     Delta-E=       -0.000000000053 Rises=F Damp=F
 DIIS: error= 1.25D-07 at cycle  13 NSaved=  13.
 NSaved=13 IEnMin=13 EnMin= -379.817250253235     IErMin=13 ErrMin= 1.25D-07
 ErrMax= 1.25D-07  0.00D+00 EMaxC= 1.00D-01 BMatC= 3.15D-12 BMatP= 1.48D-11
 IDIUse=1 WtCom= 1.00D+00 WtEn= 0.00D+00
 Coeff-Com:  0.540D-05-0.120D-04-0.336D-04-0.667D-04-0.115D-03 0.222D-03
 Coeff-Com:  0.367D-02 0.433D-03-0.139D-01-0.392D-01-0.209D-01 0.337D+00
 Coeff-Com:  0.733D+00
 Coeff:      0.540D-05-0.120D-04-0.336D-04-0.667D-04-0.115D-03 0.222D-03
 Coeff:      0.367D-02 0.433D-03-0.139D-01-0.392D-01-0.209D-01 0.337D+00
 Coeff:      0.733D+00
 Gap=     0.280 Goal=   None    Shift=    0.000
 RMSDP=3.64D-08 MaxDP=3.55D-06 DE=-5.32D-11 OVMax= 1.85D-06

 Cycle  14  Pass 1  IDiag  1:
 RMSU=  1.11D-08    CP:  9.78D-01  5.40D-01  9.30D-01  7.45D-01  8.56D-01
                    CP:  9.66D-01  1.25D+00  1.39D+00  1.27D+00  1.12D+00
                    CP:  1.14D+00  1.55D+00  1.14D+00
 E= -379.817250253239     Delta-E=       -0.000000000004 Rises=F Damp=F
 DIIS: error= 4.23D-08 at cycle  14 NSaved=  14.
 NSaved=14 IEnMin=14 EnMin= -379.817250253239     IErMin=14 ErrMin= 4.23D-08
 ErrMax= 4.23D-08  0.00D+00 EMaxC= 1.00D-01 BMatC= 7.68D-13 BMatP= 3.15D-12
 IDIUse=1 WtCom= 1.00D+00 WtEn= 0.00D+00
 Coeff-Com:  0.258D-06-0.613D-06-0.391D-05-0.732D-05-0.358D-04-0.487D-04
 Coeff-Com:  0.205D-03 0.975D-03 0.504D-02-0.838D-02-0.480D-01-0.806D-01
 Coeff-Com:  0.337D+00 0.794D+00
 Coeff:      0.258D-06-0.613D-06-0.391D-05-0.732D-05-0.358D-04-0.487D-04
 Coeff:      0.205D-03 0.975D-03 0.504D-02-0.838D-02-0.480D-01-0.806D-01
 Coeff:      0.337D+00 0.794D+00
 Gap=     0.280 Goal=   None    Shift=    0.000
 RMSDP=2.40D-08 MaxDP=2.20D-06 DE=-3.98D-12 OVMax= 7.84D-07

 Cycle  15  Pass 1  IDiag  1:
 RMSU=  7.07D-09    CP:  9.78D-01  5.40D-01  9.30D-01  7.45D-01  8.56D-01
                    CP:  9.66D-01  1.25D+00  1.39D+00  1.27D+00  1.13D+00
                    CP:  1.13D+00  1.62D+00  1.27D+00  1.08D+00
 E= -379.817250253237     Delta-E=        0.000000000002 Rises=F Damp=F
 DIIS: error= 8.93D-09 at cycle  15 NSaved=  15.
 NSaved=15 IEnMin=14 EnMin= -379.817250253239     IErMin=15 ErrMin= 8.93D-09
 ErrMax= 8.93D-09  0.00D+00 EMaxC= 1.00D-01 BMatC= 4.03D-14 BMatP= 7.68D-13
 IDIUse=1 WtCom= 1.00D+00 WtEn= 0.00D+00
 Coeff-Com: -0.242D-06 0.508D-06 0.438D-06 0.142D-05-0.857D-05-0.288D-04
 Coeff-Com: -0.131D-03 0.274D-03 0.269D-02-0.302D-03-0.175D-01-0.477D-01
 Coeff-Com:  0.857D-01 0.291D+00 0.686D+00
 Coeff:     -0.242D-06 0.508D-06 0.438D-06 0.142D-05-0.857D-05-0.288D-04
 Coeff:     -0.131D-03 0.274D-03 0.269D-02-0.302D-03-0.175D-01-0.477D-01
 Coeff:      0.857D-01 0.291D+00 0.686D+00
 Gap=     0.280 Goal=   None    Shift=    0.000
 RMSDP=3.11D-09 MaxDP=3.89D-07 DE= 1.59D-12 OVMax= 1.29D-07

 SCF Done:  E(RM062X) =  -379.817250253     A.U. after   15 cycles
            NFock= 15  Conv=0.31D-08     -V/T= 2.0049
 KE= 3.779616321695D+02 PE=-1.685657817729D+03 EE= 5.264171405959D+02
 Leave Link  502 at Sat Dec 17 23:31:10 2022, MaxMem=  6710886400 cpu:             933.3 elap:              39.0
 (Enter /data0/home/software/g16/l601.exe)
 Copying SCF densities to generalized density rwf, IOpCl= 0 IROHF=0.

 **********************************************************************

            Population analysis using the SCF density.

 **********************************************************************

 Alpha  occ. eigenvalues --  -14.81094 -14.74303 -10.62288 -10.58828 -10.57038
 Alpha  occ. eigenvalues --  -10.55275 -10.54600 -10.54488 -10.54134  -1.12131
 Alpha  occ. eigenvalues --   -0.98210  -0.95069  -0.84505  -0.83310  -0.71894
 Alpha  occ. eigenvalues --   -0.70992  -0.68063  -0.62705  -0.57328  -0.55960
 Alpha  occ. eigenvalues --   -0.51739  -0.51317  -0.50751  -0.48645  -0.43150
 Alpha  occ. eigenvalues --   -0.42188  -0.41446  -0.37320  -0.34487  -0.28694
 Alpha  occ. eigenvalues --   -0.28109
 Alpha virt. eigenvalues --   -0.00157   0.00082   0.01718   0.02762   0.03634
 Alpha virt. eigenvalues --    0.03763   0.04277   0.04839   0.05644   0.06044
 Alpha virt. eigenvalues --    0.06815   0.08024   0.08827   0.08888   0.10049
 Alpha virt. eigenvalues --    0.10584   0.11538   0.12563   0.13350   0.13622
 Alpha virt. eigenvalues --    0.14065   0.14839   0.16404   0.16495   0.17304
 Alpha virt. eigenvalues --    0.17543   0.17957   0.18138   0.18816   0.19218
 Alpha virt. eigenvalues --    0.20333   0.20727   0.21084   0.21453   0.22086
 Alpha virt. eigenvalues --    0.22632   0.23116   0.23450   0.23983   0.24461
 Alpha virt. eigenvalues --    0.25063   0.25553   0.25845   0.26692   0.26785
 Alpha virt. eigenvalues --    0.27184   0.27576   0.27697   0.28913   0.29270
 Alpha virt. eigenvalues --    0.29959   0.31453   0.31956   0.33236   0.33770
 Alpha virt. eigenvalues --    0.34362   0.35264   0.36498   0.37043   0.38343
 Alpha virt. eigenvalues --    0.38940   0.41202   0.44588   0.45329   0.46149
 Alpha virt. eigenvalues --    0.47466   0.51026   0.53364   0.54931   0.55225
 Alpha virt. eigenvalues --    0.56161   0.56916   0.57322   0.58853   0.59398
 Alpha virt. eigenvalues --    0.59999   0.61130   0.62250   0.64406   0.64762
 Alpha virt. eigenvalues --    0.66193   0.66884   0.67302   0.68117   0.69417
 Alpha virt. eigenvalues --    0.69686   0.70929   0.71474   0.72441   0.73238
 Alpha virt. eigenvalues --    0.74120   0.75587   0.76029   0.76710   0.77929
 Alpha virt. eigenvalues --    0.79092   0.80668   0.81014   0.81982   0.82907
 Alpha virt. eigenvalues --    0.83611   0.83722   0.84433   0.84920   0.85667
 Alpha virt. eigenvalues --    0.85857   0.87320   0.87663   0.88427   0.89015
 Alpha virt. eigenvalues --    0.90056   0.91353   0.91425   0.93701   0.94906
 Alpha virt. eigenvalues --    0.95469   0.96616   0.98052   0.99722   1.01320
 Alpha virt. eigenvalues --    1.02373   1.04422   1.05188   1.07213   1.09212
 Alpha virt. eigenvalues --    1.11108   1.14243   1.16762   1.18217   1.19764
 Alpha virt. eigenvalues --    1.21444   1.23089   1.23589   1.25472   1.27738
 Alpha virt. eigenvalues --    1.28368   1.34328   1.34654   1.35504   1.36370
 Alpha virt. eigenvalues --    1.37449   1.38430   1.42496   1.44101   1.44664
 Alpha virt. eigenvalues --    1.46659   1.47818   1.49256   1.52983   1.54436
 Alpha virt. eigenvalues --    1.56966   1.58876   1.61263   1.62920   1.64434
 Alpha virt. eigenvalues --    1.65767   1.69632   1.69752   1.74559   1.76013
 Alpha virt. eigenvalues --    1.77715   1.81298   1.81658   1.84915   1.86339
 Alpha virt. eigenvalues --    1.88976   1.90348   1.91369   1.93249   1.96562
 Alpha virt. eigenvalues --    1.98361   1.99100   2.00172   2.05926   2.06917
 Alpha virt. eigenvalues --    2.09866   2.10487   2.13130   2.19209   2.21676
 Alpha virt. eigenvalues --    2.24772   2.27291   2.29662   2.31843   2.33059
 Alpha virt. eigenvalues --    2.36949   2.44550   2.47688   2.48940   2.51237
 Alpha virt. eigenvalues --    2.55098   2.58812   2.60271   2.63191   2.63994
 Alpha virt. eigenvalues --    2.65027   2.65470   2.66720   2.68037   2.71152
 Alpha virt. eigenvalues --    2.71795   2.74872   2.76925   2.78115   2.78532
 Alpha virt. eigenvalues --    2.79393   2.81227   2.82840   2.84257   2.84636
 Alpha virt. eigenvalues --    2.88203   2.89376   2.91514   2.91930   2.94149
 Alpha virt. eigenvalues --    2.96553   2.97860   3.01149   3.03003   3.07803
 Alpha virt. eigenvalues --    3.09757   3.11266   3.12210   3.16681   3.17127
 Alpha virt. eigenvalues --    3.18818   3.19931   3.23802   3.29340   3.29761
 Alpha virt. eigenvalues --    3.30056   3.30529   3.34295   3.36073   3.38395
 Alpha virt. eigenvalues --    3.39225   3.39291   3.40931   3.42947   3.44408
 Alpha virt. eigenvalues --    3.48381   3.48668   3.50124   3.53334   3.55179
 Alpha virt. eigenvalues --    3.56629   3.59430   3.59587   3.59808   3.60863
 Alpha virt. eigenvalues --    3.61612   3.62858   3.64090   3.67447   3.68787
 Alpha virt. eigenvalues --    3.72436   3.74940   3.75970   3.77158   3.78803
 Alpha virt. eigenvalues --    3.79370   3.82688   3.87763   3.92550   3.94670
 Alpha virt. eigenvalues --    3.96170   3.96404   3.99398   4.01602   4.02421
 Alpha virt. eigenvalues --    4.04485   4.08734   4.10524   4.25609   4.44021
 Alpha virt. eigenvalues --    4.57813   4.60498   4.65569   4.71571   4.71885
 Alpha virt. eigenvalues --    4.75562   4.91237   4.98541   5.02831   5.03260
 Alpha virt. eigenvalues --    5.05131   5.10416   5.15877   5.19611   5.23427
 Alpha virt. eigenvalues --    5.28255   5.30363   5.31792   5.42803   5.46156
 Alpha virt. eigenvalues --    5.57925   5.65882   9.94831   9.98915  10.07612
 Alpha virt. eigenvalues --   10.10063  10.18787  10.22607  10.26838  10.30884
 Alpha virt. eigenvalues --   10.36031  10.56089  13.13430  13.34336  13.49626
 Alpha virt. eigenvalues --   13.72277  13.95202  14.25939  17.98351  18.33463
 Alpha virt. eigenvalues --   23.79631  24.02576  24.07416  24.12381  24.13620
 Alpha virt. eigenvalues --   24.24476  24.28215  35.74973  35.81849 137.54085
 Alpha virt. eigenvalues --  139.59056
          Condensed to atoms (all electrons):
               1          2          3          4          5          6
     1  C   11.073082  -3.457540  -1.395926  -0.661669   0.226340  -0.549344
     2  C   -3.457540  11.098959  -2.162163   0.548246  -1.007110   0.010483
     3  C   -1.395926  -2.162163  10.297016   0.066858   0.688194  -0.574751
     4  C   -0.661669   0.548246   0.066858   5.175899   0.359190   0.307178
     5  C    0.226340  -1.007110   0.688194   0.359190   5.214795   0.358232
     6  C   -0.549344   0.010483  -0.574751   0.307178   0.358232   6.923734
     7  H    0.026456  -0.015091   0.370377  -0.033962   0.012630  -0.015303
     8  H   -0.004923   0.041195  -0.062891   0.390610  -0.040485   0.019153
     9  H    0.048977   0.000242   0.010844  -0.035199   0.383913  -0.066125
    10  H   -0.039892  -0.021620  -0.021293   0.020995   0.014072   0.388716
    11  H   -0.113302   0.132893   0.017403  -0.000084  -0.009779  -0.051976
    12  C   -0.446673   0.080089   0.036564  -0.008921   0.008426  -0.102741
    13  H   -0.028853   0.046999   0.035055  -0.000874   0.001838  -0.006446
    14  N    0.346544  -0.054057  -0.085050   0.015328  -0.015571  -0.114187
    15  N    0.625658   0.374432  -0.865616  -0.023667  -0.008902   0.041402
    16  O    0.000567  -0.005736   0.006398  -0.001082   0.000674  -0.000676
    17  H   -0.003343   0.004278  -0.002319   0.001469  -0.001270   0.001269
    18  H    0.001035   0.002161  -0.003146   0.000023  -0.000159  -0.000020
    19  O    0.028016  -0.017475  -0.004609  -0.003261   0.019940  -0.002238
    20  H   -0.071234   0.020052   0.010160   0.007214  -0.030688   0.009656
    21  H   -0.001711   0.007146  -0.001819   0.001033  -0.001943  -0.000603
               7          8          9         10         11         12
     1  C    0.026456  -0.004923   0.048977  -0.039892  -0.113302  -0.446673
     2  C   -0.015091   0.041195   0.000242  -0.021620   0.132893   0.080089
     3  C    0.370377  -0.062891   0.010844  -0.021293   0.017403   0.036564
     4  C   -0.033962   0.390610  -0.035199   0.020995  -0.000084  -0.008921
     5  C    0.012630  -0.040485   0.383913   0.014072  -0.009779   0.008426
     6  C   -0.015303   0.019153  -0.066125   0.388716  -0.051976  -0.102741
     7  H    0.514965  -0.004668  -0.000250   0.000082   0.000015   0.000468
     8  H   -0.004668   0.543056  -0.004952  -0.000297  -0.000001   0.000671
     9  H   -0.000250  -0.004952   0.543813  -0.004725  -0.000010   0.000397
    10  H    0.000082  -0.000297  -0.004725   0.537168   0.001729   0.003115
    11  H    0.000015  -0.000001  -0.000010   0.001729   0.398532  -0.023611
    12  C    0.000468   0.000671   0.000397   0.003115  -0.023611   5.104053
    13  H   -0.000033  -0.000000  -0.000001  -0.000015  -0.001121   0.419898
    14  N   -0.001058   0.000384  -0.000570  -0.001840   0.386912   0.377119
    15  N    0.006475  -0.000394   0.000265   0.000505  -0.007595   0.396194
    16  O   -0.000001   0.000002  -0.000000   0.000001   0.000001  -0.000079
    17  H    0.000005  -0.000001   0.000002  -0.000001  -0.000001  -0.000343
    18  H   -0.000007  -0.000001   0.000000  -0.000000  -0.000000   0.000081
    19  O   -0.000004  -0.000023  -0.000062  -0.000103   0.000023   0.011321
    20  H   -0.000008   0.000017   0.000021  -0.000039   0.000045  -0.009440
    21  H    0.000005  -0.000001   0.000007   0.000046  -0.000052  -0.001735
              13         14         15         16         17         18
     1  C   -0.028853   0.346544   0.625658   0.000567  -0.003343   0.001035
     2  C    0.046999  -0.054057   0.374432  -0.005736   0.004278   0.002161
     3  C    0.035055  -0.085050  -0.865616   0.006398  -0.002319  -0.003146
     4  C   -0.000874   0.015328  -0.023667  -0.001082   0.001469   0.000023
     5  C    0.001838  -0.015571  -0.008902   0.000674  -0.001270  -0.000159
     6  C   -0.006446  -0.114187   0.041402  -0.000676   0.001269  -0.000020
     7  H   -0.000033  -0.001058   0.006475  -0.000001   0.000005  -0.000007
     8  H   -0.000000   0.000384  -0.000394   0.000002  -0.000001  -0.000001
     9  H   -0.000001  -0.000570   0.000265  -0.000000   0.000002   0.000000
    10  H   -0.000015  -0.001840   0.000505   0.000001  -0.000001  -0.000000
    11  H   -0.001121   0.386912  -0.007595   0.000001  -0.000001  -0.000000
    12  C    0.419898   0.377119   0.396194  -0.000079  -0.000343   0.000081
    13  H    0.502086  -0.053753  -0.062399  -0.000001   0.000001  -0.000000
    14  N   -0.053753   6.490903   0.025499   0.000213  -0.000104  -0.000059
    15  N   -0.062399   0.025499   6.827988  -0.000119  -0.000119   0.000086
    16  O   -0.000001   0.000213  -0.000119   0.001774  -0.001535  -0.000584
    17  H    0.000001  -0.000104  -0.000119  -0.001535   0.002360   0.000158
    18  H   -0.000000  -0.000059   0.000086  -0.000584   0.000158   0.000406
    19  O   -0.000081   0.003058   0.002616   0.001450  -0.003861   0.000060
    20  H    0.000027   0.003343  -0.003829  -0.000383   0.001866  -0.000122
    21  H    0.000034  -0.003667   0.000255  -0.000400   0.000900   0.000031
              19         20         21
     1  C    0.028016  -0.071234  -0.001711
     2  C   -0.017475   0.020052   0.007146
     3  C   -0.004609   0.010160  -0.001819
     4  C   -0.003261   0.007214   0.001033
     5  C    0.019940  -0.030688  -0.001943
     6  C   -0.002238   0.009656  -0.000603
     7  H   -0.000004  -0.000008   0.000005
     8  H   -0.000023   0.000017  -0.000001
     9  H   -0.000062   0.000021   0.000007
    10  H   -0.000103  -0.000039   0.000046
    11  H    0.000023   0.000045  -0.000052
    12  C    0.011321  -0.009440  -0.001735
    13  H   -0.000081   0.000027   0.000034
    14  N    0.003058   0.003343  -0.003667
    15  N    0.002616  -0.003829   0.000255
    16  O    0.001450  -0.000383  -0.000400
    17  H   -0.003861   0.001866   0.000900
    18  H    0.000060  -0.000122   0.000031
    19  O    0.029610  -0.022880  -0.005835
    20  H   -0.022880   0.023681   0.002849
    21  H   -0.005835   0.002849   0.002559
 Mulliken charges:
               1
     1  C    0.397736
     2  C    0.373617
     3  C   -0.359286
     4  C   -0.125325
     5  C   -0.172336
     6  C   -0.575413
     7  H    0.138907
     8  H    0.123549
     9  H    0.123413
    10  H    0.123397
    11  H    0.269978
    12  C    0.155147
    13  H    0.147638
    14  N   -0.319387
    15  N   -0.328734
    16  O   -0.000483
    17  H    0.000590
    18  H    0.000055
    19  O   -0.035660
    20  H    0.059693
    21  H    0.002902
 Sum of Mulliken charges =  -0.00000
 Mulliken charges with hydrogens summed into heavy atoms:
               1
     1  C    0.397736
     2  C    0.373617
     3  C   -0.220379
     4  C   -0.001776
     5  C   -0.048923
     6  C   -0.452016
    12  C    0.302786
    14  N   -0.049408
    15  N   -0.328734
    16  O    0.000162
    19  O    0.026935
         Mulliken charges condensed to fragments:
      1     -0.027098
      2      0.000162
      3      0.026935
 Electronic spatial extent (au):  <R**2>=          83025.3642
 Charge=              0.0000 electrons
 Dipole moment (field-independent basis, Debye):
    X=              1.7372    Y=             -1.5176    Z=              2.5645  Tot=              3.4493
 Quadrupole moment (field-independent basis, Debye-Ang):
   XX=            -25.7047   YY=            -97.9183   ZZ=              6.5872
   XY=             19.8827   XZ=             43.4693   YZ=             23.9150
 Traceless Quadrupole moment (field-independent basis, Debye-Ang):
   XX=             13.3073   YY=            -58.9064   ZZ=             45.5991
   XY=             19.8827   XZ=             43.4693   YZ=             23.9150
 Octapole moment (field-independent basis, Debye-Ang**2):
  XXX=           -668.5929  YYY=          -3365.7406  ZZZ=           -641.2870  XYY=           -118.8953
  XXY=           -388.3136  XXZ=            -50.9011  XZZ=            434.6619  YZZ=            -29.9342
  YYZ=           -401.3391  XYZ=            597.7357
 Hexadecapole moment (field-independent basis, Debye-Ang**3):
 XXXX=          -9370.2892 YYYY=         -90888.5682 ZZZZ=         -19724.9271 XXXY=          -9856.3426
 XXXZ=          -5333.3311 YYYX=         -12915.6656 YYYZ=         -25387.0196 ZZZX=           1235.5114
 ZZZY=         -10645.6023 XXYY=          -8027.0391 XXZZ=            -59.1030 YYZZ=          -8143.5785
 XXYZ=           -705.8202 YYXZ=           4776.0108 ZZXY=           6071.6098
 N-N= 4.014617947099D+02 E-N=-1.685657817384D+03  KE= 3.779616321695D+02
 No NMR shielding tensors so no spin-rotation constants.
 Leave Link  601 at Sat Dec 17 23:31:11 2022, MaxMem=  6710886400 cpu:               2.6 elap:               0.1
 (Enter /data0/home/software/g16/l122.exe)
 CPIOFr:  IOpCl= 0 IRwI=-1 IRwCP=  731 ICalc=  1 LCPTot=      197202 Len1MO=      517103 IndFrg=     1231408
 Counterpoise: doing calculation for fragment   2 using the basis set of the full-system, NewBq=T
 Leave Link  122 at Sat Dec 17 23:31:11 2022, MaxMem=  6710886400 cpu:               0.2 elap:               0.0
 (Enter /data0/home/software/g16/l301.exe)
 Basis read from rwf:  (5D, 7F)
 No pseudopotential information found on rwf file.
   357 basis functions,   542 primitive gaussians,   379 cartesian basis functions
     5 alpha electrons        5 beta electrons
       nuclear repulsion energy         9.1104841041 Hartrees.
 IExCor= 4336 DFT=T Ex+Corr=M062X ExCW=0 ScaHFX=  0.540000
 ScaDFX=  1.000000  1.000000  1.000000  1.000000 ScalE2=  1.000000  1.000000
 IRadAn=      5 IRanWt=     -1 IRanGd=            0 ICorTp=0 IEmpDi=131
 NAtoms=   21 NActive=   21 NUniq=   21 SFac= 1.00D+00 NAtFMM=   60 NAOKFM=F Big=F
 Integral buffers will be    131072 words long.
 Raffenetti 2 integral format.
 Two-electron integral symmetry is turned off.
 R6Disp:  Grimme-D3 Dispersion energy=       -0.0000000079 Hartrees.
 Nuclear repulsion after empirical dispersion term =        9.1104840962 Hartrees.
 No density basis found on file   718.
 Leave Link  301 at Sat Dec 17 23:31:11 2022, MaxMem=  6710886400 cpu:               1.3 elap:               0.1
 (Enter /data0/home/software/g16/l302.exe)
 NPDir=0 NMtPBC=     1 NCelOv=     1 NCel=       1 NClECP=     1 NCelD=      1
         NCelK=      1 NCelE2=     1 NClLst=     1 CellRange=     0.0.
 One-electron integrals computed using PRISM.
 NBasis=   357 RedAO= T EigKep=  1.31D-06  NBF=   357
 NBsUse=   357 1.00D-06 EigRej= -1.00D+00 NBFU=   357
 Precomputing XC quadrature grid using
 IXCGrd= 4 IRadAn=           5 IRanWt=          -1 IRanGd=           0 AccXCQ= 0.00D+00.
 Generated NRdTot=       0 NPtTot=           0 NUsed=           0 NTot=          32
 NSgBfM=   379   379   379   379   379 MxSgAt=    21 MxSgA2=    21.
 Leave Link  302 at Sat Dec 17 23:31:11 2022, MaxMem=  6710886400 cpu:               5.9 elap:               0.3
 (Enter /data0/home/software/g16/l303.exe)
 DipDrv:  MaxL=1.
 Leave Link  303 at Sat Dec 17 23:31:11 2022, MaxMem=  6710886400 cpu:               0.8 elap:               0.1
 (Enter /data0/home/software/g16/l401.exe)
 ExpMin= 4.38D-02 ExpMax= 8.59D+03 ExpMxC= 1.30D+03 IAcc=3 IRadAn=         5 AccDes= 0.00D+00
 Harris functional with IExCor= 1009 and IRadAn=       5 diagonalized for initial guess.
 HarFok:  IExCor= 1009 AccDes= 0.00D+00 IRadAn=         5 IDoV= 1 UseB2=F ITyADJ=14
 ICtDFT=  3500011 ScaDFX=  1.000000  1.000000  1.000000  1.000000
 FoFCou: FMM=F IPFlag=           0 FMFlag=      100000 FMFlg1=           0
         NFxFlg=           0 DoJE=T BraDBF=F KetDBF=T FulRan=T
[...]
 Alpha virt. eigenvalues --    1.06043   1.18817   1.19849   1.32557   1.33832
 Alpha virt. eigenvalues --    1.69470   1.74079   1.75871   2.07640   2.09455
 Alpha virt. eigenvalues --    2.35194   2.42464   2.54325   2.88577   3.01248
 Alpha virt. eigenvalues --    5.05695   5.47691   5.93152   6.78227   6.80306
 Alpha virt. eigenvalues --    6.87022   6.91489   7.09541  49.95949
          Condensed to atoms (all electrons):
              16         17         18
    16  O    7.915009   0.319634   0.323211
    17  H    0.319634   0.424392  -0.024564
    18  H    0.323211  -0.024564   0.424037
 Mulliken charges:
               1
     1  C    0.000000
     2  C    0.000000
     3  C    0.000000
     4  C    0.000000
     5  C    0.000000
     6  C    0.000000
     7  H    0.000000
     8  H    0.000000
     9  H    0.000000
    10  H    0.000000
    11  H    0.000000
    12  C    0.000000
    13  H    0.000000
    14  N    0.000000
    15  N    0.000000
    16  O   -0.557854
    17  H    0.280538
    18  H    0.277316
    19  O    0.000000
    20  H    0.000000
    21  H    0.000000
 Sum of Mulliken charges =  -0.00000
 Mulliken charges with hydrogens summed into heavy atoms:
               1
     1  C    0.000000
     2  C    0.000000
     3  C    0.000000
     4  C    0.000000
     5  C    0.000000
     6  C    0.000000
    12  C    0.000000
    14  N    0.000000
    15  N    0.000000
    16  O   -0.000000
    19  O    0.000000
         Mulliken charges condensed to fragments:
      1      0.000000
      2     -0.000000
      3      0.000000
 Electronic spatial extent (au):  <R**2>=          11099.4304
 Charge=             -0.0000 electrons
 Dipole moment (field-independent basis, Debye):
    X=             -1.6414    Y=             -0.4005    Z=              1.2616  Tot=              2.1086
 Quadrupole moment (field-independent basis, Debye-Ang):
   XX=            -34.3518   YY=            -18.3029   ZZ=             10.5612
   XY=            -26.8452   XZ=              1.2917   YZ=             13.8711
 Traceless Quadrupole moment (field-independent basis, Debye-Ang):
   XX=            -20.3206   YY=             -4.2717   ZZ=             24.5923
   XY=            -26.8452   XZ=              1.2917   YZ=             13.8711
 Octapole moment (field-independent basis, Debye-Ang**2):
  XXX=           -526.4772  YYY=           -530.6208  ZZZ=             49.1324  XYY=           -492.1153
  XXY=           -516.9475  XXZ=           -110.2289  XZZ=             34.7151  YZZ=            115.9435
  YYZ=             96.3856  XYZ=            -17.4907
 Hexadecapole moment (field-independent basis, Debye-Ang**3):
 XXXX=          -7051.2949 YYYY=         -12594.7684 ZZZZ=            -21.5787 XXXY=          -7696.6688
 XXXZ=          -2355.8726 YYYX=          -9365.0657 YYYZ=           -629.8470 ZZZX=             89.7285
 ZZZY=            435.3376 XXYY=          -8289.3273 XXZZ=           -437.0149 YYZZ=            891.8672
 XXYZ=          -1869.3361 YYXZ=          -1135.2007 ZZXY=            190.7532
 N-N= 9.110484096243D+00 E-N=-1.990740930695D+02  KE= 7.619801952932D+01
 No NMR shielding tensors so no spin-rotation constants.
 Leave Link  601 at Sat Dec 17 23:32:23 2022, MaxMem=  6710886400 cpu:               1.7 elap:               0.1
 (Enter /data0/home/software/g16/l122.exe)
 CPIOFr:  IOpCl= 0 IRwI=-1 IRwCP=  731 ICalc=  5 LCPTot=      197202 Len1MO=      517103 IndFrg=     3299820
 Counterpoise: doing calculation for fragment   3 using the basis set of the fragment.
 Leave Link  122 at Sat Dec 17 23:32:23 2022, MaxMem=  6710886400 cpu:               0.1 elap:               0.0
 (Enter /data0/home/software/g16/l301.exe)
 Basis read from rwf:  (5D, 7F)
 No pseudopotential information found on rwf file.
    39 basis functions,    58 primitive gaussians,    41 cartesian basis functions
     5 alpha electrons        5 beta electrons
       nuclear repulsion energy         9.1243081451 Hartrees.
 IExCor= 4336 DFT=T Ex+Corr=M062X ExCW=0 ScaHFX=  0.540000
 ScaDFX=  1.000000  1.000000  1.000000  1.000000 ScalE2=  1.000000  1.000000
 IRadAn=      5 IRanWt=     -1 IRanGd=            0 ICorTp=0 IEmpDi=131
 NAtoms=   21 NActive=    3 NUniq=    3 SFac= 1.00D+00 NAtFMM=   60 NAOKFM=F Big=F
 Integral buffers will be    131072 words long.
 Raffenetti 2 integral format.
 Two-electron integral symmetry is turned off.
 R6Disp:  Grimme-D3 Dispersion energy=       -0.0000000077 Hartrees.
 Nuclear repulsion after empirical dispersion term =        9.1243081374 Hartrees.
 No density basis found on file   718.
 Leave Link  301 at Sat Dec 17 23:32:23 2022, MaxMem=  6710886400 cpu:               1.3 elap:               0.1
 (Enter /data0/home/software/g16/l302.exe)
 NPDir=0 NMtPBC=     1 NCelOv=     1 NCel=       1 NClECP=     1 NCelD=      1
         NCelK=      1 NCelE2=     1 NClLst=     1 CellRange=     0.0.
 One-electron integrals computed using PRISM.
 NBasis=    39 RedAO= T EigKep=  3.03D-03  NBF=    39
 NBsUse=    39 1.00D-06 EigRej= -1.00D+00 NBFU=    39
 Precomputing XC quadrature grid using
 IXCGrd= 4 IRadAn=           5 IRanWt=          -1 IRanGd=           0 AccXCQ= 0.00D+00.
 Generated NRdTot=       0 NPtTot=           0 NUsed=           0 NTot=          32
 NSgBfM=    41    41    41    41    41 MxSgAt=     3 MxSgA2=     3.
 Leave Link  302 at Sat Dec 17 23:32:23 2022, MaxMem=  6710886400 cpu:               2.2 elap:               0.1
 (Enter /data0/home/software/g16/l303.exe)
 DipDrv:  MaxL=1.
 Leave Link  303 at Sat Dec 17 23:32:23 2022, MaxMem=  6710886400 cpu:               0.4 elap:               0.0
 (Enter /data0/home/software/g16/l401.exe)
 ExpMin= 8.45D-02 ExpMax= 8.59D+03 ExpMxC= 1.30D+03 IAcc=3 IRadAn=         5 AccDes= 0.00D+00
 Harris functional with IExCor= 1009 and IRadAn=       5 diagonalized for initial guess.
 HarFok:  IExCor= 1009 AccDes= 0.00D+00 IRadAn=         5 IDoV= 1 UseB2=F ITyADJ=14
 ICtDFT=  3500011 ScaDFX=  1.000000  1.000000  1.000000  1.000000
 FoFCou: FMM=F IPFlag=           0 FMFlag=      100000 FMFlg1=           0
         NFxFlg=           0 DoJE=T BraDBF=F KetDBF=T FulRan=T
         wScrn=  0.000000 ICntrl=       500 IOpCl=  0 I1Cent=   200000004 NGrid=           0
         NMat0=    1 NMatS0=      1 NMatT0=    0 NMatD0=    1 NMtDS0=    0 NMtDT0=    0
 Symmetry not used in FoFCou.
 Harris En= -76.4168715303230    
 JPrj=0 DoOrth=F DoCkMO=F.
 Leave Link  401 at Sat Dec 17 23:32:23 2022, MaxMem=  6710886400 cpu:               2.8 elap:               0.1
 (Enter /data0/home/software/g16/l502.exe)
 Keep R1 ints in memory in canonical form, NReq=21039444.
 FoFCou: FMM=F IPFlag=           0 FMFlag=           0 FMFlg1=           0
         NFxFlg=           0 DoJE=F BraDBF=F KetDBF=F FulRan=T
         wScrn=  0.000000 ICntrl=       600 IOpCl=  0 I1Cent=           0 NGrid=           0
         NMat0=    1 NMatS0=    780 NMatT0=    0 NMatD0=    1 NMtDS0=    0 NMtDT0=    0
 Symmetry not used in FoFCou.
 Two-electron integral symmetry not used.
 Closed shell SCF:
 Using DIIS extrapolation, IDIIS=  1040.
 NGot=  6710886400 LenX=  6710576478 LenY=  6710574356
 Requested convergence on RMS density matrix=1.00D-08 within 128 cycles.
 Requested convergence on MAX density matrix=1.00D-06.
 Requested convergence on             energy=1.00D-06.
 No special actions if energy rises.
 Integral accuracy reduced to 1.0D-05 until final iterations.

 Cycle   1  Pass 0  IDiag  1:
 E= -76.3462767239808    
 DIIS: error= 7.05D-02 at cycle   1 NSaved=   1.
 NSaved= 1 IEnMin= 1 EnMin= -76.3462767239808     IErMin= 1 ErrMin= 7.05D-02
 ErrMax= 7.05D-02  0.00D+00 EMaxC= 1.00D-01 BMatC= 1.21D-01 BMatP= 1.21D-01
 IDIUse=3 WtCom= 2.95D-01 WtEn= 7.05D-01
 Coeff-Com:  0.100D+01
 Coeff-En:   0.100D+01
 Coeff:      0.100D+01
 Gap=     0.325 Goal=   None    Shift=    0.000
 GapD=    0.325 DampG=1.000 DampE=0.500 DampFc=0.5000 IDamp=-1.
 Damping current iteration by 5.00D-01
 RMSDP=7.89D-03 MaxDP=1.01D-01              OVMax= 1.68D-01

 Cycle   2  Pass 0  IDiag  1:
 E= -76.3778986492120     Delta-E=       -0.031621925231 Rises=F Damp=T
 DIIS: error= 1.15D-02 at cycle   2 NSaved=   2.
 NSaved= 2 IEnMin= 2 EnMin= -76.3778986492120     IErMin= 2 ErrMin= 1.15D-02
 ErrMax= 1.15D-02  0.00D+00 EMaxC= 1.00D-01 BMatC= 4.80D-03 BMatP= 1.21D-01
 IDIUse=3 WtCom= 8.85D-01 WtEn= 1.15D-01
 Coeff-Com:  0.810D-01 0.919D+00
 Coeff-En:   0.185D+00 0.815D+00
 Coeff:      0.930D-01 0.907D+00
 Gap=     0.458 Goal=   None    Shift=    0.000
 RMSDP=9.35D-04 MaxDP=1.39D-02 DE=-3.16D-02 OVMax= 1.00D-01

 Cycle   3  Pass 0  IDiag  1:
 E= -76.4218811087876     Delta-E=       -0.043982459576 Rises=F Damp=F
 DIIS: error= 2.17D-03 at cycle   3 NSaved=   3.
 NSaved= 3 IEnMin= 3 EnMin= -76.4218811087876     IErMin= 3 ErrMin= 2.17D-03
 ErrMax= 2.17D-03  0.00D+00 EMaxC= 1.00D-01 BMatC= 9.05D-05 BMatP= 4.80D-03
 IDIUse=3 WtCom= 9.78D-01 WtEn= 2.17D-02
 Coeff-Com: -0.199D-01 0.394D-01 0.981D+00
 Coeff-En:   0.000D+00 0.000D+00 0.100D+01
 Coeff:     -0.195D-01 0.386D-01 0.981D+00
 Gap=     0.463 Goal=   None    Shift=    0.000
 RMSDP=1.14D-04 MaxDP=9.92D-04 DE=-4.40D-02 OVMax= 3.29D-03

 Cycle   4  Pass 0  IDiag  1:
 E= -76.4219581125373     Delta-E=       -0.000077003750 Rises=F Damp=F
 DIIS: error= 4.09D-04 at cycle   4 NSaved=   4.
 NSaved= 4 IEnMin= 4 EnMin= -76.4219581125373     IErMin= 4 ErrMin= 4.09D-04
 ErrMax= 4.09D-04  0.00D+00 EMaxC= 1.00D-01 BMatC= 3.25D-06 BMatP= 9.05D-05
 IDIUse=3 WtCom= 9.96D-01 WtEn= 4.09D-03
 Coeff-Com: -0.188D-02-0.218D-02 0.162D+00 0.842D+00
 Coeff-En:   0.000D+00 0.000D+00 0.000D+00 0.100D+01
 Coeff:     -0.187D-02-0.217D-02 0.162D+00 0.842D+00
 Gap=     0.463 Goal=   None    Shift=    0.000
 RMSDP=2.20D-05 MaxDP=3.52D-04 DE=-7.70D-05 OVMax= 5.28D-04

 Cycle   5  Pass 0  IDiag  1:
 E= -76.4219601138235     Delta-E=       -0.000002001286 Rises=F Damp=F
 DIIS: error= 8.79D-05 at cycle   5 NSaved=   5.
 NSaved= 5 IEnMin= 5 EnMin= -76.4219601138235     IErMin= 5 ErrMin= 8.79D-05
 ErrMax= 8.79D-05  0.00D+00 EMaxC= 1.00D-01 BMatC= 8.13D-08 BMatP= 3.25D-06
 IDIUse=1 WtCom= 1.00D+00 WtEn= 0.00D+00
 Coeff-Com:  0.116D-02-0.177D-02-0.362D-01-0.653D-01 0.110D+01
 Coeff:      0.116D-02-0.177D-02-0.362D-01-0.653D-01 0.110D+01
 Gap=     0.463 Goal=   None    Shift=    0.000
 RMSDP=8.88D-06 MaxDP=1.02D-04 DE=-2.00D-06 OVMax= 1.99D-04

 Initial convergence to 1.0D-05 achieved.  Increase integral accuracy.
 Cycle   6  Pass 1  IDiag  1:
 E= -76.4219484501482     Delta-E=        0.000011663675 Rises=F Damp=F
 DIIS: error= 1.49D-05 at cycle   1 NSaved=   1.
 NSaved= 1 IEnMin= 1 EnMin= -76.4219484501482     IErMin= 1 ErrMin= 1.49D-05
 ErrMax= 1.49D-05  0.00D+00 EMaxC= 1.00D-01 BMatC= 1.52D-08 BMatP= 1.52D-08
 IDIUse=1 WtCom= 1.00D+00 WtEn= 0.00D+00
 Coeff-Com:  0.100D+01
 Coeff:      0.100D+01
 Gap=     0.463 Goal=   None    Shift=    0.000
 RMSDP=8.88D-06 MaxDP=1.02D-04 DE= 1.17D-05 OVMax= 5.10D-05

 Cycle   7  Pass 1  IDiag  1:
 E= -76.4219484625168     Delta-E=       -0.000000012369 Rises=F Damp=F
 DIIS: error= 1.09D-05 at cycle   2 NSaved=   2.
 NSaved= 2 IEnMin= 2 EnMin= -76.4219484625168     IErMin= 2 ErrMin= 1.09D-05
 ErrMax= 1.09D-05  0.00D+00 EMaxC= 1.00D-01 BMatC= 1.94D-09 BMatP= 1.52D-08
 IDIUse=1 WtCom= 1.00D+00 WtEn= 0.00D+00
 Coeff-Com:  0.111D+00 0.889D+00
 Coeff:      0.111D+00 0.889D+00
 Gap=     0.463 Goal=   None    Shift=    0.000
 RMSDP=8.91D-07 MaxDP=1.50D-05 DE=-1.24D-08 OVMax= 2.29D-05

 Cycle   8  Pass 1  IDiag  1:
 E= -76.4219484629887     Delta-E=       -0.000000000472 Rises=F Damp=F
 DIIS: error= 7.78D-06 at cycle   3 NSaved=   3.
 NSaved= 3 IEnMin= 3 EnMin= -76.4219484629887     IErMin= 3 ErrMin= 7.78D-06
 ErrMax= 7.78D-06  0.00D+00 EMaxC= 1.00D-01 BMatC= 1.54D-09 BMatP= 1.94D-09
 IDIUse=1 WtCom= 1.00D+00 WtEn= 0.00D+00
 Coeff-Com: -0.463D-01 0.482D+00 0.564D+00
 Coeff:     -0.463D-01 0.482D+00 0.564D+00
 Gap=     0.463 Goal=   None    Shift=    0.000
 RMSDP=4.39D-07 MaxDP=5.72D-06 DE=-4.72D-10 OVMax= 1.05D-05

 Cycle   9  Pass 1  IDiag  1:
 E= -76.4219484640067     Delta-E=       -0.000000001018 Rises=F Damp=F
 DIIS: error= 5.93D-07 at cycle   4 NSaved=   4.
 NSaved= 4 IEnMin= 4 EnMin= -76.4219484640067     IErMin= 4 ErrMin= 5.93D-07
 ErrMax= 5.93D-07  0.00D+00 EMaxC= 1.00D-01 BMatC= 4.32D-12 BMatP= 1.54D-09
 IDIUse=1 WtCom= 1.00D+00 WtEn= 0.00D+00
 Coeff-Com: -0.355D-02-0.141D-01 0.568D-02 0.101D+01
 Coeff:     -0.355D-02-0.141D-01 0.568D-02 0.101D+01
 Gap=     0.463 Goal=   None    Shift=    0.000
 RMSDP=7.69D-08 MaxDP=6.72D-07 DE=-1.02D-09 OVMax= 1.64D-06

 Cycle  10  Pass 1  IDiag  1:
 E= -76.4219484640150     Delta-E=       -0.000000000008 Rises=F Damp=F
 DIIS: error= 1.08D-07 at cycle   5 NSaved=   5.
 NSaved= 5 IEnMin= 5 EnMin= -76.4219484640150     IErMin= 5 ErrMin= 1.08D-07
 ErrMax= 1.08D-07  0.00D+00 EMaxC= 1.00D-01 BMatC= 2.87D-13 BMatP= 4.32D-12
 IDIUse=1 WtCom= 1.00D+00 WtEn= 0.00D+00
 Coeff-Com:  0.246D-02-0.297D-01-0.308D-01 0.463D-01 0.101D+01
 Coeff:      0.246D-02-0.297D-01-0.308D-01 0.463D-01 0.101D+01
 Gap=     0.463 Goal=   None    Shift=    0.000
 RMSDP=2.30D-08 MaxDP=2.04D-07 DE=-8.31D-12 OVMax= 5.40D-07

 Cycle  11  Pass 1  IDiag  1:
 E= -76.4219484640156     Delta-E=       -0.000000000001 Rises=F Damp=F
 DIIS: error= 2.28D-08 at cycle   6 NSaved=   6.
 NSaved= 6 IEnMin= 6 EnMin= -76.4219484640156     IErMin= 6 ErrMin= 2.28D-08
 ErrMax= 2.28D-08  0.00D+00 EMaxC= 1.00D-01 BMatC= 6.10D-15 BMatP= 2.87D-13
 IDIUse=1 WtCom= 1.00D+00 WtEn= 0.00D+00
 Coeff-Com:  0.197D-04 0.850D-03 0.133D-02-0.330D-01-0.369D-01 0.107D+01
 Coeff:      0.197D-04 0.850D-03 0.133D-02-0.330D-01-0.369D-01 0.107D+01
 Gap=     0.463 Goal=   None    Shift=    0.000
 RMSDP=3.81D-09 MaxDP=2.80D-08 DE=-6.11D-13 OVMax= 7.53D-08

 SCF Done:  E(RM062X) =  -76.4219484640     A.U. after   11 cycles
            NFock= 11  Conv=0.38D-08     -V/T= 2.0029
 KE= 7.620320701898D+01 PE=-1.991036739396D+02 EE= 3.735421031922D+01
 Leave Link  502 at Sat Dec 17 23:32:24 2022, MaxMem=  6710886400 cpu:               8.7 elap:               0.4
 (Enter /data0/home/software/g16/l601.exe)
 Copying SCF densities to generalized density rwf, IOpCl= 0 IROHF=0.

 **********************************************************************

            Population analysis using the SCF density.

 **********************************************************************

 Alpha  occ. eigenvalues --  -19.62552  -1.13424  -0.60918  -0.47471  -0.39995
 Alpha virt. eigenvalues --    0.06327   0.13358   0.17385   0.17946   0.18942
 Alpha virt. eigenvalues --    0.23243   0.51459   0.53435   0.97856   1.00160
 Alpha virt. eigenvalues --    1.06045   1.18717   1.19919   1.32531   1.33760
 Alpha virt. eigenvalues --    1.69684   1.74217   1.75876   2.08206   2.09143
 Alpha virt. eigenvalues --    2.35402   2.42367   2.54434   2.88892   3.01351
 Alpha virt. eigenvalues --    5.05701   5.48102   5.93563   6.78245   6.80274
 Alpha virt. eigenvalues --    6.87047   6.91516   7.09405  49.96067
          Condensed to atoms (all electrons):
              19         20         21
    19  O    7.913638   0.322570   0.320783
    20  H    0.322570   0.424367  -0.024630
    21  H    0.320783  -0.024630   0.424548
 Mulliken charges:
               1
     1  C    0.000000
     2  C    0.000000
     3  C    0.000000
     4  C    0.000000
     5  C    0.000000
     6  C    0.000000
     7  H    0.000000
     8  H    0.000000
     9  H    0.000000
    10  H    0.000000
    11  H    0.000000
    12  C    0.000000
    13  H    0.000000
    14  N    0.000000
    15  N    0.000000
    16  O    0.000000
    17  H    0.000000
    18  H    0.000000
    19  O   -0.556991
    20  H    0.277693
    21  H    0.279298
 Sum of Mulliken charges =  -0.00000
 Mulliken charges with hydrogens summed into heavy atoms:
               1
     1  C    0.000000
     2  C    0.000000
     3  C    0.000000
     4  C    0.000000
     5  C    0.000000
     6  C    0.000000
    12  C    0.000000
    14  N    0.000000
    15  N    0.000000
    16  O    0.000000
    19  O   -0.000000
         Mulliken charges condensed to fragments:
      1      0.000000
      2      0.000000
      3     -0.000000
 Electronic spatial extent (au):  <R**2>=          11893.3084
 Charge=             -0.0000 electrons
 Dipole moment (field-independent basis, Debye):
    X=             -0.8351    Y=              1.6208    Z=              1.0606  Tot=              2.1093
 Quadrupole moment (field-independent basis, Debye-Ang):
   XX=            -19.4818   YY=             36.8553   ZZ=             11.9489
   XY=              4.0084   XZ=              1.0946   YZ=             29.2182
 Traceless Quadrupole moment (field-independent basis, Debye-Ang):
   XX=            -29.2560   YY=             27.0812   ZZ=              2.1747
   XY=              4.0084   XZ=              1.0946   YZ=             29.2182
 Octapole moment (field-independent basis, Debye-Ang**2):
  XXX=           -319.6059  YYY=            612.9931  ZZZ=             63.1394  XYY=            200.4173
  XXY=           -118.0414  XXZ=           -105.6430  XZZ=             25.1411  YZZ=            300.4409
  YYZ=            532.8968  XYZ=            155.4311
 Hexadecapole moment (field-independent basis, Debye-Ang**3):
 XXXX=          -4480.8127 YYYY=           8740.1471 ZZZZ=           -448.9668 XXXY=          -2933.7507
 XXXZ=          -2314.7303 YYYX=           3927.4019 YYYZ=           8276.0666 ZZZX=           -211.1556
 ZZZY=           2170.2983 XXYY=           -160.9131 XXZZ=           -867.5934 YYZZ=           5361.9466
 XXYZ=            -90.9831 YYXZ=           3452.4090 ZZXY=           1652.6651
 N-N= 9.124308137404D+00 E-N=-1.991036742192D+02  KE= 7.620320701898D+01
 No NMR shielding tensors so no spin-rotation constants.
 Leave Link  601 at Sat Dec 17 23:32:24 2022, MaxMem=  6710886400 cpu:               1.8 elap:               0.1
 (Enter /data0/home/software/g16/l122.exe)
 CPIOFr:  IOpCl= 0 IRwI=-1 IRwCP=  731 ICalc=  6 LCPTot=      197202 Len1MO=      517103 IndFrg=     3816923
 Restoring MOs from calculation   1 to rwf.
 CPIOFr:  IOpCl= 0 IRwI=-2 IRwCP=  731 ICalc=  0 LCPTot=      197202 Len1MO=      517103 IndFrg=      714305
 Counterpoise corrected energy =    -532.674630206754
                   BSSE energy =       0.002207678312
              sum of fragments =    -532.660678623769
           complexation energy =     -10.14 kcal/mole (raw)
           complexation energy =      -8.75 kcal/mole (corrected)
 Leave Link  122 at Sat Dec 17 23:32:24 2022, MaxMem=  6710886400 cpu:               0.2 elap:               0.0
 (Enter /data0/home/software/g16/l9999.exe)
 1\1\GINC-LOCALHOST\SP\RM062X\6-311+G(2d,p)\C7H10N2O2\WUHANYU\17-Dec-20
 22\0\\#p M062X/6-311+G(2d,p) nosymm em=GD3 counterpoise=3\\Title Card 
 Required\\0,1\C,0,6.635329,14.603765,11.170309\C,0,6.12067,15.452629,1
 0.132403\C,0,5.170173,14.966014,9.230123\C,0,4.756111,13.654264,9.3819
 03\C,0,5.261407,12.828667,10.408784\C,0,6.20208,13.284302,11.317248\H,
 0,4.782497,15.61077,8.443678\H,0,4.015704,13.239272,8.698169\H,0,4.894
 323,11.804143,10.482939\H,0,6.585999,12.647051,12.107827\H,0,8.145565,
 15.059925,12.612696\C,0,7.597426,16.637153,11.249394\H,0,8.262109,17.4
 29595,11.574569\N,0,7.561187,15.381739,11.874571\N,0,6.738567,16.70551
 ,10.226588\O,0,8.829859,13.887798,6.34496\H,0,8.836853,13.481191,7.232
 997\H,0,7.90812,14.067438,6.168199\O,0,8.70397,13.158344,9.050538\H,0,
 7.814211,13.229797,9.402076\H,0,9.129393,13.995769,9.292346\\Version=E
 S64L-G16RevA.03\HF=-76.4219485\RMSD=3.813e-09\Dipole=-0.5265002,-0.060
 854,2.3117199\Quadrupole=-36.401718,-26.5922576,62.9939756,-7.6544999,
 35.7890191,61.4304425\PG=C01 [X(C7H10N2O2)]\\@


 ON A TOMBSTONE, "HERE LIES LESTER MOORE,
 FOUR SLUGS FROM A 44, NO LES, NO MORE".
 Job cpu time:       0 days  1 hours  1 minutes 32.8 seconds.
 Elapsed time:       0 days  0 hours  2 minutes 35.4 seconds.
 File lengths (MBytes):  RWF=    110 Int=      0 D2E=      0 Chk=     37 Scr=      1
 Normal termination of Gaussian 16 at Sat Dec 17 23:32:24 2022.
