 Entering Gaussian System, Link 0=g16
 Initial command:
 /data0/home/software/g16/l1.exe "/data0/home/software/g16/scratch/Gau-302109.inp" -scrdir="/data0/home/software/g16/scratch/"
 Default is to use a total of  22 processors:
                               22 via shared-memory
                                1 via Linda
 Entering Link 1 = /data0/home/software/g16/l1.exe PID=    302110.
  
 Copyright (c) 1988,1990,1992,1993,1995,1998,2003,2009,2016,
            Gaussian, Inc.  All Rights Reserved.
  
 This is part of the Gaussian(R) 16 program.  It is based on
 the Gaussian(R) 09 system (copyright 2009, Gaussian, Inc.),
 the Gaussian(R) 03 system (copyright 2003, Gaussian, Inc.),
 the Gaussian(R) 98 system (copyright 1998, Gaussian, Inc.),
 the Gaussian(R) 94 system (copyright 1995, Gaussian, Inc.),
 the Gaussian 92(TM) system (copyright 1992, Gaussian, Inc.),
 the Gaussian 90(TM) system (copyright 1990, Gaussian, Inc.),
 the Gaussian 88(TM) system (copyright 1988, Gaussian, Inc.),
 the Gaussian 86(TM) system (copyright 1986, Carnegie Mellon
 University), and the Gaussian 82(TM) system (copyright 1983,
 Carnegie Mellon University). Gaussian is a federally registered
 trademark of Gaussian, Inc.
  
 This software contains proprietary and confidential information,
 including trade secrets, belonging to Gaussian, Inc.
  
 This software is provided under written license and may be
 used, copied, transmitted, or stored only in accord with that
 written license.
  
 The following legend is applicable only to US Government
 contracts under FAR:
  
                    RESTRICTED RIGHTS LEGEND
  
 Use, reproduction and disclosure by the US Government is
 subject to restrictions as set forth in subparagraphs (a)
 and (c) of the Commercial Computer Software - Restricted
 Rights clause in FAR 52.227-19.
  
 Gaussian, Inc.
 340 Quinnipiac St., Bldg. 40, Wallingford CT 06492
  
  
 ---------------------------------------------------------------
 Warning -- This program may not be used in any manner that
 competes with the business of Gaussian, Inc. or will provide
 assistance to any competitor of Gaussian, Inc.  The licensee
 of this program is prohibited from giving any competitor of
 Gaussian, Inc. access to this program.  By using this program,
 the user acknowledges that Gaussian, Inc. is engaged in the
 business of creating and licensing software in the field of
 computational chemistry and represents and warrants to the
 licensee that it is not a competitor of Gaussian, Inc. and that
 it will not use this program in any manner prohibited above.
 ---------------------------------------------------------------
  

 Cite this work as:
 Gaussian 16, Revision A.03,
 M. J. Frisch, G. W. Trucks, H. B. Schlegel, G. E. Scuseria, 
 M. A. Robb, J. R. Cheeseman, G. Scalmani, V. Barone, 
 G. A. Petersson, H. Nakatsuji, X. Li, M. Caricato, A. V. Marenich, 
 J. Bloino, B. G. Janesko, R. Gomperts, B. Mennucci, H. P. Hratchian, 
 J. V. Ortiz, A. F. Izmaylov, J. L. Sonnenberg, D. Williams-Young, 
 F. Ding, F. Lipparini, F. Egidi, J. Goings, B. Peng, A. Petrone, 
 T. Henderson, D. Ranasinghe, V. G. Zakrzewski, J. Gao, N. Rega, 
 G. Zheng, W. Liang, M. Hada, M. Ehara, K. Toyota, R. Fukuda, 
 J. Hasegawa, M. Ishida, T. Nakajima, Y. Honda, O. Kitao, H. Nakai, 
 T. Vreven, K. Throssell, J. A. Montgomery, Jr., J. E. Peralta, 
 F. Ogliaro, M. J. Bearpark, J. J. Heyd, E. N. Brothers, K. N. Kudin, 
 V. N. Staroverov, T. A. Keith, R. Kobayashi, J. Normand, 
 K. Raghavachari, A. P. Rendell, J. C. Burant, S. S. Iyengar, 
 J. Tomasi, M. Cossi, J. M. Millam, M. Klene, C. Adamo, R. Cammi, 
 J. W. Ochterski, R. L. Martin, K. Morokuma, O. Farkas, 
 J. B. Foresman, and D. J. Fox, Gaussian, Inc., Wallingford CT, 2016.
 
 ******************************************
 Gaussian 16:  ES64L-G16RevA.03 25-Dec-2016
                19-Feb-2023 
 ******************************************
 %nproc=24
 Will use up to   24 processors via shared memory.
 %mem=50GB
 ---------------------------------------------------
 #p M062X/6-311+G(2d,p) nosymm em=GD3 counterpoise=4
 ---------------------------------------------------
 1/38=1,62=4,172=1/1;
 2/12=2,15=1,17=6,18=5,40=1/2;
 1/38=1,53=2,62=4,63=1/22;
 3/5=4,6=6,7=112,11=2,25=1,30=1,74=-55,124=31/1,2,3;
 4//1;
 5/5=2,38=5/2;
 6/7=2,8=2,9=2,10=2,28=1/1;
 1/53=2,62=4,63=1/22;
 3/5=7,6=11,7=112,11=2,25=1,30=1,74=-55,82=7,124=31/1,2,3;
 4//1;
 5/5=2,38=5/2;
 6/7=2,8=2,9=2,10=2,28=1/1;
 1/53=2,62=4,63=1/22(-4);
 99/5=1,9=1/99;
 Leave Link    1 at Sun Feb 19 13:59:32 2023, MaxMem=  6710886400 cpu:               0.7 elap:               0.0
 (Enter /data0/home/software/g16/l101.exe)
 -------------------
 Title Card Required
 -------------------
 Symbolic Z-matrix:
 Charge =  0 Multiplicity = 1 in supermolecule
 Charge =  0 Multiplicity = 1 in fragment      1.
 Charge =  0 Multiplicity = 1 in fragment      2.
 Charge =  0 Multiplicity = 1 in fragment      3.
 Charge =  0 Multiplicity = 1 in fragment      4.
 C                     10.9962   7.95437   11.13808    
 C                     11.59988   9.16004   11.47835    
 C                     9.37383   9.40329   11.71809    
 N                     9.62395   8.12302   11.30453    
 H                     11.43522   7.0419    10.76169    
 H                     12.63471   9.4391    11.44811    
 H                     8.38421   9.84706   11.86913    
 C                     8.60022   7.12648   11.05403    
 H                     8.99418   6.28713   10.44546    
 H                     8.19298   6.72873   11.99762    
 H                     7.75184   7.57622   10.46896    
 N                     10.58122   10.04198   11.84601    
 C                     10.75795   11.44132   12.23808    
 H                     11.34045   11.4653   13.18836    
 H                     9.75175   11.88437   12.45663    
 C                     11.47537   12.27877   11.15693    
 H                     12.09408   13.04899   11.6617    
 H                     12.20032   11.64446   10.59509    
 C                     10.52034   12.96047   10.183     
 H                     11.08151   13.59771   9.4747     
 H                     9.82484   13.63969   10.70546    
 S                     9.57044   11.74302   9.24776    
 O                     8.97071   12.41118   8.08444    
 O                     10.57737   10.70653   8.87859    
 O                     8.59431   11.23182   10.25024    
 O                     6.67216   9.02304   7.14036    
 H                     6.18033   8.62141   6.43313    
 H                     7.17018   9.77239   6.71438    
 O                     8.20171   10.86733   5.94532    
 H                     8.35715   11.58384   6.60916    
 H                     9.00746   10.34266   6.01278    
 O                     6.62265   9.2895    10.09019    
 H                     6.49962   9.18369   9.14203    
 H                     7.22573   10.05638   10.15051    
 
 ITRead=  0  0  0  0  0  0  0  0  0  0  0  0  0  0  0  0  0  0  0  0
 ITRead=  0  0  0  0  0  0  0  0  0  0  0  0  0  0
 MicOpt= -1 -1 -1 -1 -1 -1 -1 -1 -1 -1 -1 -1 -1 -1 -1 -1 -1 -1 -1 -1
 MicOpt= -1 -1 -1 -1 -1 -1 -1 -1 -1 -1 -1 -1 -1 -1
 NAtoms=     34 NQM=       34 NQMF=       0 NMMI=      0 NMMIF=      0
                NMic=       0 NMicF=      0.
                    Isotopes and Nuclear Properties:
 (Nuclear quadrupole moments (NQMom) in fm**2, nuclear magnetic moments (NMagM)
  in nuclear magnetons)

  Atom         1           2           3           4           5           6           7           8           9          10
 IAtWgt=          12          12          12          14           1           1           1          12           1           1
 AtmWgt=  12.0000000  12.0000000  12.0000000  14.0030740   1.0078250   1.0078250   1.0078250  12.0000000   1.0078250   1.0078250
 NucSpn=           0           0           0           2           1           1           1           0           1           1
 AtZEff=  -0.0000000  -0.0000000  -0.0000000  -0.0000000  -0.0000000  -0.0000000  -0.0000000  -0.0000000  -0.0000000  -0.0000000
 NQMom=    0.0000000   0.0000000   0.0000000   2.0440000   0.0000000   0.0000000   0.0000000   0.0000000   0.0000000   0.0000000
 NMagM=    0.0000000   0.0000000   0.0000000   0.4037610   2.7928460   2.7928460   2.7928460   0.0000000   2.7928460   2.7928460
 AtZNuc=   6.0000000   6.0000000   6.0000000   7.0000000   1.0000000   1.0000000   1.0000000   6.0000000   1.0000000   1.0000000

  Atom        11          12          13          14          15          16          17          18          19          20
 IAtWgt=           1          14          12           1           1          12           1           1          12           1
 AtmWgt=   1.0078250  14.0030740  12.0000000   1.0078250   1.0078250  12.0000000   1.0078250   1.0078250  12.0000000   1.0078250
 NucSpn=           1           2           0           1           1           0           1           1           0           1
 AtZEff=  -0.0000000  -0.0000000  -0.0000000  -0.0000000  -0.0000000  -0.0000000  -0.0000000  -0.0000000  -0.0000000  -0.0000000
 NQMom=    0.0000000   2.0440000   0.0000000   0.0000000   0.0000000   0.0000000   0.0000000   0.0000000   0.0000000   0.0000000
 NMagM=    2.7928460   0.4037610   0.0000000   2.7928460   2.7928460   0.0000000   2.7928460   2.7928460   0.0000000   2.7928460
 AtZNuc=   1.0000000   7.0000000   6.0000000   1.0000000   1.0000000   6.0000000   1.0000000   1.0000000   6.0000000   1.0000000

  Atom        21          22          23          24          25          26          27          28          29          30
 IAtWgt=           1          32          16          16          16          16           1           1          16           1
 AtmWgt=   1.0078250  31.9720718  15.9949146  15.9949146  15.9949146  15.9949146   1.0078250   1.0078250  15.9949146   1.0078250
 NucSpn=           1           0           0           0           0           0           1           1           0           1
 AtZEff=  -0.0000000  -0.0000000  -0.0000000  -0.0000000  -0.0000000  -0.0000000  -0.0000000  -0.0000000  -0.0000000  -0.0000000
 NQMom=    0.0000000   0.0000000   0.0000000   0.0000000   0.0000000   0.0000000   0.0000000   0.0000000   0.0000000   0.0000000
 NMagM=    2.7928460   0.0000000   0.0000000   0.0000000   0.0000000   0.0000000   2.7928460   2.7928460   0.0000000   2.7928460
 AtZNuc=   1.0000000  16.0000000   8.0000000   8.0000000   8.0000000   8.0000000   1.0000000   1.0000000   8.0000000   1.0000000

  Atom        31          32          33          34
 IAtWgt=           1          16           1           1
 AtmWgt=   1.0078250  15.9949146   1.0078250   1.0078250
 NucSpn=           1           0           1           1
 AtZEff=  -0.0000000  -0.0000000  -0.0000000  -0.0000000
 NQMom=    0.0000000   0.0000000   0.0000000   0.0000000
 NMagM=    2.7928460   0.0000000   2.7928460   2.7928460
 AtZNuc=   1.0000000   8.0000000   1.0000000   1.0000000
 Leave Link  101 at Sun Feb 19 13:59:32 2023, MaxMem=  6710886400 cpu:               2.2 elap:               0.1
 (Enter /data0/home/software/g16/l202.exe)
                          Input orientation:                          
 ---------------------------------------------------------------------
 Center     Atomic      Atomic             Coordinates (Angstroms)
 Number     Number       Type             X           Y           Z
 ---------------------------------------------------------------------
      1          6           0       10.996203    7.954371   11.138083
      2          6           0       11.599877    9.160041   11.478352
      3          6           0        9.373827    9.403292   11.718093
      4          7           0        9.623953    8.123020   11.304530
      5          1           0       11.435224    7.041895   10.761688
      6          1           0       12.634707    9.439103   11.448111
      7          1           0        8.384206    9.847057   11.869127
      8          6           0        8.600223    7.126480   11.054029
      9          1           0        8.994181    6.287131   10.445456
     10          1           0        8.192975    6.728727   11.997619
     11          1           0        7.751843    7.576215   10.468959
     12          7           0       10.581225   10.041981   11.846007
     13          6           0       10.757954   11.441316   12.238075
     14          1           0       11.340451   11.465300   13.188364
     15          1           0        9.751752   11.884365   12.456632
     16          6           0       11.475371   12.278767   11.156927
     17          1           0       12.094080   13.048990   11.661704
     18          1           0       12.200320   11.644459   10.595085
     19          6           0       10.520343   12.960470   10.182997
     20          1           0       11.081507   13.597710    9.474696
     21          1           0        9.824844   13.639694   10.705462
     22         16           0        9.570444   11.743016    9.247762
     23          8           0        8.970711   12.411181    8.084441
     24          8           0       10.577371   10.706526    8.878586
     25          8           0        8.594315   11.231815   10.250245
     26          8           0        6.672164    9.023042    7.140364
     27          1           0        6.180332    8.621413    6.433125
     28          1           0        7.170178    9.772395    6.714376
     29          8           0        8.201705   10.867328    5.945323
     30          1           0        8.357150   11.583840    6.609160
     31          1           0        9.007458   10.342656    6.012781
     32          8           0        6.622647    9.289502   10.090189
     33          1           0        6.499619    9.183694    9.142028
     34          1           0        7.225727   10.056383   10.150510
 ---------------------------------------------------------------------
                    Distance matrix (angstroms):
                    1          2          3          4          5
     1  C    0.000000
     2  C    1.390628   0.000000
     3  C    2.251197   2.252098   0.000000
     4  N    1.392558   2.238281   1.368464   0.000000
     5  H    1.080289   2.242155   3.277234   2.178121   0.000000
     6  H    2.232766   1.072224   3.272233   3.288971   2.767046
     7  H    3.307448   3.311380   1.095029   2.197281   4.289996
     8  C    2.536373   3.648746   2.494658   1.450471   2.851289
     9  H    2.695833   4.013744   3.387358   2.122524   2.574561
    10  H    3.177907   4.217571   2.936979   2.114740   3.483931
    11  H    3.334157   4.281909   2.743971   2.121785   3.733428
    12  N    2.243096   1.396653   1.371895   2.211782   3.302359
    13  C    3.664087   2.547593   2.517882   3.628850   4.689703
    14  H    4.080292   2.881955   3.206429   4.203098   5.046211
    15  H    4.328058   3.434318   2.616102   3.935910   5.399669
    16  C    4.350903   3.137717   3.605517   4.551897   5.251919
    17  H    5.237810   3.924510   4.549074   5.522163   6.109772
    18  H    3.919374   2.704261   3.777968   4.420578   4.668696
    19  C    5.118560   4.157716   4.040363   5.046016   6.016762
    20  H    5.883996   4.896555   5.053924   5.953569   6.690305
    21  H    5.820837   4.880102   4.379034   5.552741   6.791718
    22  S    4.467654   3.970628   3.408152   4.163836   5.279196
    23  O    5.769792   5.385263   4.734271   5.402224   6.486194
    24  O    3.585402   3.193105   3.348095   3.669975   4.208504
    25  O    4.159202   3.851480   2.470974   3.440389   5.088002
    26  O    5.985075   6.566526   5.329088   5.182989   6.302830
    27  H    6.765662   7.424009   6.224197   5.986444   6.988936
    28  H    6.124774   6.533963   5.479917   5.459942   6.482822
    29  O    6.577180   6.713927   6.069773   6.186689   6.948882
    30  H    6.375640   6.332386   5.647089   5.968967   6.880937
    31  H    5.993975   6.163739   5.793722   5.771435   6.272255
    32  O    4.691338   5.168808   3.198751   3.441387   5.353835
    33  H    5.070970   5.609956   3.865929   3.944985   5.618790
    34  H    4.428346   4.658302   2.738280   3.289551   5.213496
                    6          7          8          9         10
     6  H    0.000000
     7  H    4.290739   0.000000
     8  C    4.666968   2.848260   0.000000
     9  H    4.918707   3.882265   1.109086   0.000000
    10  H    5.232311   3.126829   1.102007   1.801707   0.000000
    11  H    5.317090   2.741729   1.124419   1.790445   1.802674
    12  N    2.176826   2.205770   3.612720   4.310354   4.087099
    13  C    2.855714   2.883134   4.967452   5.734980   5.370794
    14  H    2.968005   3.619182   5.557841   6.312049   5.810301
    15  H    3.912525   2.523087   5.092228   5.995646   5.405653
    16  C    3.080997   3.996967   5.901112   6.523971   6.502602
    17  H    3.656389   4.904953   6.903074   7.537332   7.434863
    18  H    2.404151   4.406423   5.795124   6.245213   6.495409
    19  C    4.297799   4.135149   6.203305   6.850658   6.895224
    20  H    4.858066   5.203473   7.108297   7.664455   7.867127
    21  H    5.108016   4.220622   6.636501   7.403903   7.217626
    22  S    4.420323   3.445776   5.051370   5.615446   5.882366
    23  O    5.794169   4.608966   6.073202   6.563454   6.943207
    24  O    3.527244   3.806835   4.632321   4.949002   5.588971
    25  O    4.579680   2.140673   4.183286   4.964665   4.846874
    26  O    7.367612   5.096203   4.757219   4.878586   5.582981
    27  H    8.214479   5.992444   5.426182   5.428206   6.212615
    28  H    7.237431   5.296310   5.280008   5.421717   6.182450
    29  O    7.209161   6.013794   6.344418   6.469731   7.332011
    30  H    6.805354   5.539350   6.299524   6.571005   7.254968
    31  H    6.596678   5.910233   5.993647   6.008000   7.038619
    32  O    6.165322   2.564874   3.085200   3.842476   3.558341
    33  H    6.559158   3.380649   3.507195   4.038792   4.129009
    34  H    5.596594   2.083155   3.360047   4.173929   3.926917
                   11         12         13         14         15
    11  H    0.000000
    12  N    3.997708   0.000000
    13  C    5.206292   1.463929   0.000000
    14  H    5.949643   2.098615   1.114866   0.000000
    15  H    5.148848   2.110750   1.120938   1.798614   0.000000
    16  C    6.037546   2.505502   1.544310   2.192412   2.194459
    17  H    7.087237   3.371172   2.168422   2.325236   2.734001
    18  H    6.029549   2.598886   2.195701   2.737986   3.085190
    19  C    6.061070   3.359596   2.566639   3.455480   2.630238
    20  H    6.952239   4.303093   3.520083   4.290170   3.687240
    21  H    6.412413   3.849220   2.837686   3.631784   2.480548
    22  S    4.707533   3.265896   3.231590   4.328787   3.217095
    23  O    5.527066   4.728239   4.624668   5.706171   4.472540
    24  O    4.506855   3.040925   3.443645   4.442096   3.856341
    25  O    3.757793   2.812467   2.945623   4.028439   2.575583
    26  O    3.786629   6.201780   6.966232   8.020962   6.777443
    27  H    4.455339   7.119351   7.912264   8.963692   7.725577
    28  H    4.388443   6.167784   6.794754   7.884772   6.640666
    29  O    5.612226   6.415714   6.816348   7.916498   6.770093
    30  H    5.596919   5.894778   6.121181   7.224961   6.018983
    31  H    5.393263   6.049271   6.559388   7.628380   6.667387
    32  O    2.086601   4.395391   5.132688   6.049005   4.703686
    33  H    2.431625   4.970681   5.728506   6.709114   5.371833
    34  H    2.555277   3.759559   4.330427   5.305144   3.878211
                   16         17         18         19         20
    16  C    0.000000
    17  H    1.109434   0.000000
    18  H    1.115152   1.766825   0.000000
    19  C    1.524906   2.161263   2.173482   0.000000
    20  H    2.173624   2.471720   2.514399   1.105744   0.000000
    21  H    2.186363   2.532343   3.104196   1.103646   1.759474
    22  S    2.749670   3.728461   2.956559   1.805316   2.403061
    23  O    3.966236   4.791560   4.161919   2.665899   2.792153
    24  O    2.910186   3.941229   2.541663   2.604804   2.994736
    25  O    3.196665   4.188400   3.645883   2.588891   3.519241
    26  O    7.057147   8.126989   7.026196   6.290424   6.768973
    27  H    7.982981   9.050629   7.918395   7.191985   7.618150
    28  H    6.674792   7.710833   6.623206   5.780896   6.127879
    29  O    6.314259   7.251706   6.181678   5.264523   5.310812
    30  H    5.557734   6.452868   5.537258   4.398503   4.437239
    31  H    6.025061   6.982966   5.734681   5.150968   5.184777
    32  O    5.798497   6.822022   6.075457   5.355059   6.230644
    33  H    6.196564   7.251708   6.376890   5.613722   6.370864
    34  H    4.900137   5.911029   5.240821   4.391955   5.278708
                   21         22         23         24         25
    21  H    0.000000
    22  S    2.405618   0.000000
    23  O    3.018036   1.469503   0.000000
    24  O    3.536559   1.491477   2.473433   0.000000
    25  O    2.742135   1.489673   2.494651   2.467770   0.000000
    26  O    6.630444   4.498823   4.201677   4.594146   4.271382
    27  H    7.531167   5.399949   4.987525   5.446276   5.216504
    28  H    6.158898   4.007826   3.475944   4.143111   4.081721
    29  O    5.742780   3.680541   2.747850   3.778052   4.338127
    30  H    4.812520   2.908546   1.799279   3.293836   3.665743
    31  H    5.793085   3.569743   2.927784   3.287836   4.349413
    32  O    5.436616   3.926693   4.391049   4.372160   2.772305
    33  H    5.775585   3.998909   4.200174   4.360789   3.132203
    34  H    4.461334   3.026117   3.585901   3.643349   1.806826
                   26         27         28         29         30
    26  O    0.000000
    27  H    0.950469   0.000000
    28  H    0.995497   1.543910   0.000000
    29  O    2.677501   3.060724   1.689488   0.000000
    30  H    3.111116   3.680421   2.168250   0.989056   0.000000
    31  H    2.909712   3.336466   2.047689   0.963882   1.522861
    32  O    2.962249   3.743809   3.453851   4.707746   4.515534
    33  H    2.015500   2.785006   2.586448   3.993826   3.953042
    34  H    3.230357   4.119580   3.448297   4.392467   4.019254
                   31         32         33         34
    31  H    0.000000
    32  O    4.839598   0.000000
    33  H    4.174283   0.961946   0.000000
    34  H    4.514124   0.977472   1.518504   0.000000
 Symmetry turned off by external request.
 Stoichiometry    C7H18N2O6S
 Framework group  C1[X(C7H18N2O6S)]
 Deg. of freedom    96
 Full point group                 C1      NOp   1
 Rotational constants (GHZ):           0.4988565           0.3904026           0.2647857
 Leave Link  202 at Sun Feb 19 13:59:32 2023, MaxMem=  6710886400 cpu:               0.1 elap:               0.0
 (Enter /data0/home/software/g16/l122.exe)
 Counterpoise: doing full-system calculation.
 Leave Link  122 at Sun Feb 19 13:59:32 2023, MaxMem=  6710886400 cpu:               0.1 elap:               0.0
 (Enter /data0/home/software/g16/l301.exe)
 Standard basis: 6-311+G(2d,p) (5D, 7F)
 Ernie: Thresh=  0.10000D-02 Tol=  0.10000D-05 Strict=F.
   548 basis functions,   830 primitive gaussians,   580 cartesian basis functions
    69 alpha electrons       69 beta electrons
       nuclear repulsion energy      1474.3974203248 Hartrees.
 IExCor= 4336 DFT=T Ex+Corr=M062X ExCW=0 ScaHFX=  0.540000
 ScaDFX=  1.000000  1.000000  1.000000  1.000000 ScalE2=  1.000000  1.000000
 IRadAn=      5 IRanWt=     -1 IRanGd=            0 ICorTp=0 IEmpDi=131
 NAtoms=   34 NActive=   34 NUniq=   34 SFac= 1.00D+00 NAtFMM=   60 NAOKFM=F Big=F
 Integral buffers will be    131072 words long.
 Raffenetti 2 integral format.
 Two-electron integral symmetry is turned off.
 R6Disp:  Grimme-D3 Dispersion energy=       -0.0023376973 Hartrees.
 Nuclear repulsion after empirical dispersion term =     1474.3950826276 Hartrees.
 Leave Link  301 at Sun Feb 19 13:59:32 2023, MaxMem=  6710886400 cpu:               1.2 elap:               0.1
 (Enter /data0/home/software/g16/l302.exe)
 NPDir=0 NMtPBC=     1 NCelOv=     1 NCel=       1 NClECP=     1 NCelD=      1
         NCelK=      1 NCelE2=     1 NClLst=     1 CellRange=     0.0.
 One-electron integrals computed using PRISM.
 NBasis=   548 RedAO= T EigKep=  1.21D-05  NBF=   548
 NBsUse=   548 1.00D-06 EigRej= -1.00D+00 NBFU=   548
 Precomputing XC quadrature grid using
 IXCGrd= 4 IRadAn=           5 IRanWt=          -1 IRanGd=           0 AccXCQ= 0.00D+00.
 Generated NRdTot=       0 NPtTot=           0 NUsed=           0 NTot=          32
 NSgBfM=   579   579   579   579   579 MxSgAt=    34 MxSgA2=    34.
 Leave Link  302 at Sun Feb 19 13:59:33 2023, MaxMem=  6710886400 cpu:              14.2 elap:               0.6
 (Enter /data0/home/software/g16/l303.exe)
 DipDrv:  MaxL=1.
 Leave Link  303 at Sun Feb 19 13:59:33 2023, MaxMem=  6710886400 cpu:               1.4 elap:               0.1
 (Enter /data0/home/software/g16/l401.exe)
 ExpMin= 4.05D-02 ExpMax= 9.34D+04 ExpMxC= 3.17D+03 IAcc=3 IRadAn=         5 AccDes= 0.00D+00
 Harris functional with IExCor= 1009 and IRadAn=       5 diagonalized for initial guess.
 HarFok:  IExCor= 1009 AccDes= 0.00D+00 IRadAn=         5 IDoV= 1 UseB2=F ITyADJ=14
 ICtDFT=  3500011 ScaDFX=  1.000000  1.000000  1.000000  1.000000
 FoFCou: FMM=F IPFlag=           0 FMFlag=      100000 FMFlg1=           0
         NFxFlg=           0 DoJE=T BraDBF=F KetDBF=T FulRan=T
         wScrn=  0.000000 ICntrl=       500 IOpCl=  0 I1Cent=   200000004 NGrid=           0
         NMat0=    1 NMatS0=      1 NMatT0=    0 NMatD0=    1 NMtDS0=    0 NMtDT0=    0
 Symmetry not used in FoFCou.
 Harris En= -1236.06546343899    
 JPrj=0 DoOrth=F DoCkMO=F.
 Leave Link  401 at Sun Feb 19 13:59:35 2023, MaxMem=  6710886400 cpu:              54.8 elap:               2.3
 (Enter /data0/home/software/g16/l502.exe)
 Two-electron integral symmetry not used.
 Closed shell SCF:
 Using DIIS extrapolation, IDIIS=  1040.
 NGot=  6710886400 LenX=  6710195554 LenY=  6709858574
 Requested convergence on RMS density matrix=1.00D-08 within 128 cycles.
 Requested convergence on MAX density matrix=1.00D-06.
 Requested convergence on             energy=1.00D-06.
 No special actions if energy rises.
 Fock matrices will be formed incrementally for  20 cycles.

 Cycle   1  Pass 1  IDiag  1:
 FoFJK:  IHMeth= 1 ICntrl=       0 DoSepK=F KAlg= 0 I1Cent=           0 FoldK=F
 IRaf= 850000000 NMat=       1 IRICut=       1 DoRegI=T DoRafI=F ISym2E= 0 IDoP0=0 IntGTp=1.
 FoFCou: FMM=F IPFlag=           0 FMFlag=      100000 FMFlg1=           0
         NFxFlg=           0 DoJE=F BraDBF=F KetDBF=F FulRan=T
         wScrn=  0.000000 ICntrl=         0 IOpCl=  0 I1Cent=           0 NGrid=           0
         NMat0=    1 NMatS0=      1 NMatT0=    0 NMatD0=    1 NMtDS0=    0 NMtDT0=    0
 Symmetry not used in FoFCou.
 E= -1235.92440276800    
 DIIS: error= 2.81D-02 at cycle   1 NSaved=   1.
 NSaved= 1 IEnMin= 1 EnMin= -1235.92440276800     IErMin= 1 ErrMin= 2.81D-02
 ErrMax= 2.81D-02  0.00D+00 EMaxC= 1.00D-01 BMatC= 1.02D+00 BMatP= 1.02D+00
 IDIUse=3 WtCom= 7.19D-01 WtEn= 2.81D-01
 Coeff-Com:  0.100D+01
 Coeff-En:   0.100D+01
 Coeff:      0.100D+01
 Gap=     0.288 Goal=   None    Shift=    0.000
 GapD=    0.288 DampG=1.000 DampE=0.500 DampFc=0.5000 IDamp=-1.
 Damping current iteration by 5.00D-01
 RMSDP=4.44D-03 MaxDP=2.57D-01              OVMax= 1.81D-01

 Cycle   2  Pass 1  IDiag  1:
 RMSU=  2.22D-03    CP:  1.01D+00
 E= -1236.19774476740     Delta-E=       -0.273341999396 Rises=F Damp=T
 DIIS: error= 5.52D-03 at cycle   2 NSaved=   2.
 NSaved= 2 IEnMin= 2 EnMin= -1236.19774476740     IErMin= 2 ErrMin= 5.52D-03
 ErrMax= 5.52D-03  0.00D+00 EMaxC= 1.00D-01 BMatC= 6.03D-02 BMatP= 1.02D+00
 IDIUse=3 WtCom= 9.45D-01 WtEn= 5.52D-02
 Coeff-Com:  0.286D-01 0.971D+00
 Coeff-En:   0.109D+00 0.891D+00
 Coeff:      0.330D-01 0.967D+00
 Gap=     0.297 Goal=   None    Shift=    0.000
 RMSDP=1.76D-03 MaxDP=2.57D-01 DE=-2.73D-01 OVMax= 1.17D-01

 Cycle   3  Pass 1  IDiag  1:
 RMSU=  1.48D-03    CP:  9.26D-01  8.58D-01
 E= -1236.52578466134     Delta-E=       -0.328039893941 Rises=F Damp=F
 DIIS: error= 3.25D-03 at cycle   3 NSaved=   3.
 NSaved= 3 IEnMin= 3 EnMin= -1236.52578466134     IErMin= 3 ErrMin= 3.25D-03
 ErrMax= 3.25D-03  0.00D+00 EMaxC= 1.00D-01 BMatC= 1.88D-02 BMatP= 6.03D-02
 IDIUse=3 WtCom= 9.68D-01 WtEn= 3.25D-02
 Coeff-Com: -0.515D-01 0.315D+00 0.737D+00
 Coeff-En:   0.000D+00 0.000D+00 0.100D+01
 Coeff:     -0.498D-01 0.305D+00 0.745D+00
 Gap=     0.290 Goal=   None    Shift=    0.000
 RMSDP=5.02D-04 MaxDP=4.33D-02 DE=-3.28D-01 OVMax= 3.58D-02

 Cycle   4  Pass 1  IDiag  1:
 RMSU=  4.54D-04    CP:  9.28D-01  9.44D-01  9.38D-01
 E= -1236.53620636999     Delta-E=       -0.010421708646 Rises=F Damp=F
 DIIS: error= 1.76D-03 at cycle   4 NSaved=   4.
 NSaved= 4 IEnMin= 4 EnMin= -1236.53620636999     IErMin= 4 ErrMin= 1.76D-03
 ErrMax= 1.76D-03  0.00D+00 EMaxC= 1.00D-01 BMatC= 4.95D-03 BMatP= 1.88D-02
 IDIUse=3 WtCom= 9.82D-01 WtEn= 1.76D-02
 Coeff-Com: -0.276D-01 0.794D-01 0.393D+00 0.555D+00
 Coeff-En:   0.000D+00 0.000D+00 0.190D+00 0.810D+00
 Coeff:     -0.271D-01 0.780D-01 0.389D+00 0.560D+00
 Gap=     0.289 Goal=   None    Shift=    0.000
 RMSDP=2.13D-04 MaxDP=2.31D-02 DE=-1.04D-02 OVMax= 1.12D-02

 Cycle   5  Pass 1  IDiag  1:
 RMSU=  1.12D-04    CP:  9.25D-01  9.24D-01  9.72D-01  6.40D-01
 E= -1236.54002024861     Delta-E=       -0.003813878626 Rises=F Damp=F
 DIIS: error= 4.24D-04 at cycle   5 NSaved=   5.
 NSaved= 5 IEnMin= 5 EnMin= -1236.54002024861     IErMin= 5 ErrMin= 4.24D-04
 ErrMax= 4.24D-04  0.00D+00 EMaxC= 1.00D-01 BMatC= 2.27D-04 BMatP= 4.95D-03
 IDIUse=3 WtCom= 9.96D-01 WtEn= 4.24D-03
 Coeff-Com: -0.921D-02 0.187D-01 0.136D+00 0.259D+00 0.595D+00
 Coeff-En:   0.000D+00 0.000D+00 0.000D+00 0.000D+00 0.100D+01
 Coeff:     -0.917D-02 0.187D-01 0.136D+00 0.258D+00 0.597D+00
 Gap=     0.287 Goal=   None    Shift=    0.000
 RMSDP=5.01D-05 MaxDP=2.95D-03 DE=-3.81D-03 OVMax= 2.82D-03

 Cycle   6  Pass 1  IDiag  1:
 RMSU=  3.16D-05    CP:  9.25D-01  9.27D-01  9.72D-01  6.94D-01  7.41D-01
 E= -1236.54017030719     Delta-E=       -0.000150058578 Rises=F Damp=F
 DIIS: error= 1.02D-04 at cycle   6 NSaved=   6.
 NSaved= 6 IEnMin= 6 EnMin= -1236.54017030719     IErMin= 6 ErrMin= 1.02D-04
 ErrMax= 1.02D-04  0.00D+00 EMaxC= 1.00D-01 BMatC= 2.20D-05 BMatP= 2.27D-04
 IDIUse=3 WtCom= 9.99D-01 WtEn= 1.02D-03
 Coeff-Com: -0.187D-02 0.193D-02 0.287D-01 0.735D-01 0.288D+00 0.610D+00
 Coeff-En:   0.000D+00 0.000D+00 0.000D+00 0.000D+00 0.000D+00 0.100D+01
 Coeff:     -0.187D-02 0.193D-02 0.286D-01 0.734D-01 0.287D+00 0.611D+00
 Gap=     0.287 Goal=   None    Shift=    0.000
 RMSDP=1.74D-05 MaxDP=1.42D-03 DE=-1.50D-04 OVMax= 8.57D-04

 Cycle   7  Pass 1  IDiag  1:
 RMSU=  1.45D-05    CP:  9.25D-01  9.26D-01  9.75D-01  7.02D-01  7.59D-01
                    CP:  7.90D-01
 E= -1236.54018696796     Delta-E=       -0.000016660774 Rises=F Damp=F
 DIIS: error= 2.77D-05 at cycle   7 NSaved=   7.
 NSaved= 7 IEnMin= 7 EnMin= -1236.54018696796     IErMin= 7 ErrMin= 2.77D-05
 ErrMax= 2.77D-05  0.00D+00 EMaxC= 1.00D-01 BMatC= 1.89D-06 BMatP= 2.20D-05
 IDIUse=1 WtCom= 1.00D+00 WtEn= 0.00D+00
 Coeff-Com:  0.275D-03-0.131D-02-0.384D-02 0.263D-02 0.573D-01 0.258D+00
 Coeff-Com:  0.687D+00
 Coeff:      0.275D-03-0.131D-02-0.384D-02 0.263D-02 0.573D-01 0.258D+00
 Coeff:      0.687D+00
 Gap=     0.287 Goal=   None    Shift=    0.000
 RMSDP=4.46D-06 MaxDP=5.79D-04 DE=-1.67D-05 OVMax= 2.23D-04

 Cycle   8  Pass 1  IDiag  1:
 RMSU=  3.36D-06    CP:  9.25D-01  9.26D-01  9.75D-01  7.04D-01  7.72D-01
                    CP:  8.41D-01  8.98D-01
 E= -1236.54018848295     Delta-E=       -0.000001514985 Rises=F Damp=F
 DIIS: error= 8.38D-06 at cycle   8 NSaved=   8.
 NSaved= 8 IEnMin= 8 EnMin= -1236.54018848295     IErMin= 8 ErrMin= 8.38D-06
 ErrMax= 8.38D-06  0.00D+00 EMaxC= 1.00D-01 BMatC= 1.83D-07 BMatP= 1.89D-06
 IDIUse=1 WtCom= 1.00D+00 WtEn= 0.00D+00
 Coeff-Com:  0.331D-03-0.687D-03-0.550D-02-0.889D-02-0.181D-01 0.996D-02
 Coeff-Com:  0.249D+00 0.773D+00
 Coeff:      0.331D-03-0.687D-03-0.550D-02-0.889D-02-0.181D-01 0.996D-02
 Coeff:      0.249D+00 0.773D+00
 Gap=     0.287 Goal=   None    Shift=    0.000
 RMSDP=2.05D-06 MaxDP=1.17D-04 DE=-1.51D-06 OVMax= 1.24D-04

 Cycle   9  Pass 1  IDiag  1:
 RMSU=  1.60D-06    CP:  9.25D-01  9.25D-01  9.75D-01  7.05D-01  7.78D-01
                    CP:  8.60D-01  9.31D-01  9.19D-01
 E= -1236.54018865603     Delta-E=       -0.000000173077 Rises=F Damp=F
 DIIS: error= 3.13D-06 at cycle   9 NSaved=   9.
 NSaved= 9 IEnMin= 9 EnMin= -1236.54018865603     IErMin= 9 ErrMin= 3.13D-06
 ErrMax= 3.13D-06  0.00D+00 EMaxC= 1.00D-01 BMatC= 1.89D-08 BMatP= 1.83D-07
 IDIUse=1 WtCom= 1.00D+00 WtEn= 0.00D+00
 Coeff-Com:  0.102D-03-0.167D-03-0.192D-02-0.361D-02-0.107D-01-0.131D-01
 Coeff-Com:  0.466D-01 0.307D+00 0.676D+00
 Coeff:      0.102D-03-0.167D-03-0.192D-02-0.361D-02-0.107D-01-0.131D-01
 Coeff:      0.466D-01 0.307D+00 0.676D+00
 Gap=     0.287 Goal=   None    Shift=    0.000
 RMSDP=5.32D-07 MaxDP=2.71D-05 DE=-1.73D-07 OVMax= 3.90D-05

 Cycle  10  Pass 1  IDiag  1:
 RMSU=  3.67D-07    CP:  9.25D-01  9.25D-01  9.76D-01  7.05D-01  7.78D-01
                    CP:  8.60D-01  9.48D-01  9.77D-01  9.24D-01
 E= -1236.54018867365     Delta-E=       -0.000000017622 Rises=F Damp=F
 DIIS: error= 9.35D-07 at cycle  10 NSaved=  10.
 NSaved=10 IEnMin=10 EnMin= -1236.54018867365     IErMin=10 ErrMin= 9.35D-07
 ErrMax= 9.35D-07  0.00D+00 EMaxC= 1.00D-01 BMatC= 1.75D-09 BMatP= 1.89D-08
 IDIUse=1 WtCom= 1.00D+00 WtEn= 0.00D+00
 Coeff-Com: -0.465D-05 0.221D-04-0.480D-04-0.280D-03-0.186D-02-0.613D-02
 Coeff-Com: -0.150D-01 0.205D-01 0.218D+00 0.785D+00
 Coeff:     -0.465D-05 0.221D-04-0.480D-04-0.280D-03-0.186D-02-0.613D-02
 Coeff:     -0.150D-01 0.205D-01 0.218D+00 0.785D+00
 Gap=     0.287 Goal=   None    Shift=    0.000
 RMSDP=1.91D-07 MaxDP=1.10D-05 DE=-1.76D-08 OVMax= 2.07D-05

 Cycle  11  Pass 1  IDiag  1:
 RMSU=  1.44D-07    CP:  9.25D-01  9.25D-01  9.76D-01  7.05D-01  7.78D-01
                    CP:  8.60D-01  9.48D-01  9.90D-01  9.90D-01  1.05D+00
 E= -1236.54018867570     Delta-E=       -0.000000002051 Rises=F Damp=F
 DIIS: error= 7.04D-07 at cycle  11 NSaved=  11.
 NSaved=11 IEnMin=11 EnMin= -1236.54018867570     IErMin=11 ErrMin= 7.04D-07
 ErrMax= 7.04D-07  0.00D+00 EMaxC= 1.00D-01 BMatC= 5.40D-10 BMatP= 1.75D-09
 IDIUse=1 WtCom= 1.00D+00 WtEn= 0.00D+00
 Coeff-Com: -0.159D-04 0.335D-04 0.238D-03 0.351D-03 0.540D-03-0.998D-03
 Coeff-Com: -0.143D-01-0.327D-01 0.412D-02 0.396D+00 0.646D+00
 Coeff:     -0.159D-04 0.335D-04 0.238D-03 0.351D-03 0.540D-03-0.998D-03
 Coeff:     -0.143D-01-0.327D-01 0.412D-02 0.396D+00 0.646D+00
 Gap=     0.287 Goal=   None    Shift=    0.000
 RMSDP=8.89D-08 MaxDP=5.88D-06 DE=-2.05D-09 OVMax= 7.29D-06

 Cycle  12  Pass 1  IDiag  1:
 RMSU=  5.15D-08    CP:  9.25D-01  9.25D-01  9.76D-01  7.05D-01  7.78D-01
                    CP:  8.60D-01  9.47D-01  9.97D-01  1.01D+00  1.17D+00
                    CP:  8.28D-01
 E= -1236.54018867617     Delta-E=       -0.000000000468 Rises=F Damp=F
 DIIS: error= 2.30D-07 at cycle  12 NSaved=  12.
 NSaved=12 IEnMin=12 EnMin= -1236.54018867617     IErMin=12 ErrMin= 2.30D-07
 ErrMax= 2.30D-07  0.00D+00 EMaxC= 1.00D-01 BMatC= 5.87D-11 BMatP= 5.40D-10
 IDIUse=1 WtCom= 1.00D+00 WtEn= 0.00D+00
 Coeff-Com: -0.573D-05 0.109D-04 0.109D-03 0.190D-03 0.480D-03 0.493D-03
 Coeff-Com: -0.415D-02-0.165D-01-0.300D-01 0.735D-01 0.291D+00 0.684D+00
 Coeff:     -0.573D-05 0.109D-04 0.109D-03 0.190D-03 0.480D-03 0.493D-03
 Coeff:     -0.415D-02-0.165D-01-0.300D-01 0.735D-01 0.291D+00 0.684D+00
 Gap=     0.287 Goal=   None    Shift=    0.000
 RMSDP=2.88D-08 MaxDP=2.28D-06 DE=-4.68D-10 OVMax= 2.33D-06

 Cycle  13  Pass 1  IDiag  1:
 RMSU=  2.11D-08    CP:  9.25D-01  9.25D-01  9.76D-01  7.05D-01  7.78D-01
                    CP:  8.60D-01  9.47D-01  9.97D-01  1.02D+00  1.17D+00
                    CP:  9.19D-01  9.41D-01
 E= -1236.54018867625     Delta-E=       -0.000000000084 Rises=F Damp=F
 DIIS: error= 6.27D-08 at cycle  13 NSaved=  13.
 NSaved=13 IEnMin=13 EnMin= -1236.54018867625     IErMin=13 ErrMin= 6.27D-08
 ErrMax= 6.27D-08  0.00D+00 EMaxC= 1.00D-01 BMatC= 5.96D-12 BMatP= 5.87D-11
 IDIUse=1 WtCom= 1.00D+00 WtEn= 0.00D+00
 Coeff-Com:  0.478D-06-0.121D-05 0.406D-05 0.128D-04 0.694D-04 0.274D-03
 Coeff-Com:  0.439D-03-0.711D-03-0.101D-01-0.293D-01 0.317D-02 0.255D+00
 Coeff-Com:  0.781D+00
 Coeff:      0.478D-06-0.121D-05 0.406D-05 0.128D-04 0.694D-04 0.274D-03
 Coeff:      0.439D-03-0.711D-03-0.101D-01-0.293D-01 0.317D-02 0.255D+00
 Coeff:      0.781D+00
 Gap=     0.287 Goal=   None    Shift=    0.000
 RMSDP=1.01D-08 MaxDP=9.83D-07 DE=-8.37D-11 OVMax= 1.11D-06

 Cycle  14  Pass 1  IDiag  1:
 RMSU=  6.62D-09    CP:  9.25D-01  9.25D-01  9.76D-01  7.05D-01  7.78D-01
                    CP:  8.60D-01  9.47D-01  9.97D-01  1.02D+00  1.18D+00
                    CP:  9.34D-01  1.04D+00  9.70D-01
 E= -1236.54018867626     Delta-E=       -0.000000000003 Rises=F Damp=F
 DIIS: error= 2.76D-08 at cycle  14 NSaved=  14.
 NSaved=14 IEnMin=14 EnMin= -1236.54018867626     IErMin=14 ErrMin= 2.76D-08
 ErrMax= 2.76D-08  0.00D+00 EMaxC= 1.00D-01 BMatC= 7.60D-13 BMatP= 5.96D-12
 IDIUse=1 WtCom= 1.00D+00 WtEn= 0.00D+00
 Coeff-Com:  0.831D-06-0.171D-05-0.932D-05-0.139D-04-0.192D-04 0.689D-04
 Coeff-Com:  0.622D-03 0.144D-02-0.159D-02-0.214D-01-0.328D-01 0.408D-01
 Coeff-Com:  0.331D+00 0.682D+00
 Coeff:      0.831D-06-0.171D-05-0.932D-05-0.139D-04-0.192D-04 0.689D-04
 Coeff:      0.622D-03 0.144D-02-0.159D-02-0.214D-01-0.328D-01 0.408D-01
 Coeff:      0.331D+00 0.682D+00
 Gap=     0.287 Goal=   None    Shift=    0.000
 RMSDP=3.89D-09 MaxDP=4.97D-07 DE=-3.18D-12 OVMax= 3.54D-07

 SCF Done:  E(RM062X) =  -1236.54018868     A.U. after   14 cycles
            NFock= 14  Conv=0.39D-08     -V/T= 2.0034
 KE= 1.232400977746D+03 PE=-5.860970928153D+03 EE= 1.917634679103D+03
 Leave Link  502 at Sun Feb 19 14:01:57 2023, MaxMem=  6710886400 cpu:            3391.1 elap:             142.0
 (Enter /data0/home/software/g16/l601.exe)
 Copying SCF densities to generalized density rwf, IOpCl= 0 IROHF=0.

 **********************************************************************

            Population analysis using the SCF density.

 **********************************************************************

 Alpha  occ. eigenvalues --  -90.07340 -19.59612 -19.58410 -19.58255 -19.57996
 Alpha  occ. eigenvalues --  -19.57202 -19.57090 -14.86950 -14.86707 -10.67497
 Alpha  occ. eigenvalues --  -10.62736 -10.62650 -10.62643 -10.60065 -10.57533
 Alpha  occ. eigenvalues --  -10.56520  -8.40779  -6.33060  -6.33021  -6.33009
 Alpha  occ. eigenvalues --   -1.21717  -1.19547  -1.11001  -1.09184  -1.08632
 Alpha  occ. eigenvalues --   -1.08325  -1.07864  -1.06747  -0.93365  -0.90493
 Alpha  occ. eigenvalues --   -0.86368  -0.81710  -0.75969  -0.72874  -0.71186
 Alpha  occ. eigenvalues --   -0.66354  -0.64582  -0.60354  -0.58610  -0.58189
 Alpha  occ. eigenvalues --   -0.57569  -0.57225  -0.56982  -0.56141  -0.55539
 Alpha  occ. eigenvalues --   -0.54644  -0.54074  -0.52422  -0.52226  -0.50574
 Alpha  occ. eigenvalues --   -0.49062  -0.48789  -0.47177  -0.46676  -0.45238
 Alpha  occ. eigenvalues --   -0.44485  -0.43425  -0.42279  -0.40095  -0.39498
 Alpha  occ. eigenvalues --   -0.38340  -0.37194  -0.36305  -0.35892  -0.35146
 Alpha  occ. eigenvalues --   -0.34749  -0.33962  -0.33694  -0.30968
 Alpha virt. eigenvalues --   -0.02286  -0.00328  -0.00038   0.01002   0.01433
 Alpha virt. eigenvalues --    0.01997   0.02623   0.03276   0.03658   0.04839
 Alpha virt. eigenvalues --    0.05036   0.05755   0.06005   0.06700   0.07128
 Alpha virt. eigenvalues --    0.07561   0.08962   0.09046   0.09321   0.10104
 Alpha virt. eigenvalues --    0.10430   0.10519   0.11675   0.11744   0.12119
 Alpha virt. eigenvalues --    0.13161   0.13645   0.14297   0.14749   0.15228
 Alpha virt. eigenvalues --    0.15448   0.15693   0.16041   0.16412   0.16872
 Alpha virt. eigenvalues --    0.17215   0.17344   0.17550   0.18220   0.18294
 Alpha virt. eigenvalues --    0.18745   0.19527   0.19562   0.20205   0.20631
 Alpha virt. eigenvalues --    0.20920   0.20951   0.21375   0.21605   0.22325
 Alpha virt. eigenvalues --    0.22629   0.23328   0.23754   0.23911   0.24195
 Alpha virt. eigenvalues --    0.24857   0.25589   0.25730   0.26311   0.26409
 Alpha virt. eigenvalues --    0.26947   0.27409   0.27877   0.28493   0.28681
 Alpha virt. eigenvalues --    0.29608   0.30022   0.30218   0.30745   0.31406
 Alpha virt. eigenvalues --    0.31806   0.32337   0.33018   0.33558   0.34039
 Alpha virt. eigenvalues --    0.34664   0.34915   0.35543   0.35876   0.36843
 Alpha virt. eigenvalues --    0.37190   0.37533   0.38346   0.38973   0.39231
 Alpha virt. eigenvalues --    0.39759   0.41051   0.41651   0.41916   0.42494
 Alpha virt. eigenvalues --    0.43153   0.43684   0.44182   0.44814   0.45719
 Alpha virt. eigenvalues --    0.46468   0.47417   0.47874   0.48955   0.50035
 Alpha virt. eigenvalues --    0.50237   0.51070   0.51545   0.52842   0.53240
 Alpha virt. eigenvalues --    0.54578   0.55381   0.55570   0.56025   0.57027
 Alpha virt. eigenvalues --    0.57892   0.59568   0.59949   0.60213   0.60806
 Alpha virt. eigenvalues --    0.61301   0.62779   0.63504   0.64013   0.64653
 Alpha virt. eigenvalues --    0.65035   0.65475   0.66233   0.66351   0.67111
 Alpha virt. eigenvalues --    0.67590   0.68096   0.68465   0.68898   0.70104
 Alpha virt. eigenvalues --    0.70526   0.71318   0.71974   0.72759   0.73589
 Alpha virt. eigenvalues --    0.73651   0.75022   0.75930   0.76504   0.77492
 Alpha virt. eigenvalues --    0.77693   0.78626   0.79910   0.81769   0.82938
 Alpha virt. eigenvalues --    0.84384   0.85849   0.87138   0.89238   0.89591
 Alpha virt. eigenvalues --    0.89788   0.90979   0.91508   0.92625   0.93453
 Alpha virt. eigenvalues --    0.93956   0.95047   0.96322   0.98422   0.99972
 Alpha virt. eigenvalues --    1.00966   1.02236   1.03602   1.05009   1.05683
 Alpha virt. eigenvalues --    1.06366   1.07626   1.08513   1.09283   1.10686
 Alpha virt. eigenvalues --    1.11921   1.12386   1.13053   1.13280   1.14440
 Alpha virt. eigenvalues --    1.14950   1.16956   1.17428   1.18216   1.18925
 Alpha virt. eigenvalues --    1.19657   1.20121   1.20716   1.22067   1.22398
 Alpha virt. eigenvalues --    1.23529   1.24392   1.24692   1.25444   1.26277
 Alpha virt. eigenvalues --    1.26389   1.27141   1.27883   1.28691   1.29483
 Alpha virt. eigenvalues --    1.30280   1.30687   1.31182   1.32274   1.32623
 Alpha virt. eigenvalues --    1.33240   1.34358   1.35447   1.36264   1.36592
 Alpha virt. eigenvalues --    1.38005   1.39337   1.40179   1.40558   1.41448
 Alpha virt. eigenvalues --    1.41998   1.42953   1.43595   1.44784   1.45670
 Alpha virt. eigenvalues --    1.46379   1.47448   1.48114   1.48353   1.49692
 Alpha virt. eigenvalues --    1.50531   1.51529   1.52612   1.53529   1.55507
 Alpha virt. eigenvalues --    1.56303   1.56812   1.57508   1.59017   1.59936
 Alpha virt. eigenvalues --    1.61826   1.62373   1.64149   1.66029   1.68062
 Alpha virt. eigenvalues --    1.68809   1.70665   1.72763   1.75316   1.75673
 Alpha virt. eigenvalues --    1.76414   1.76822   1.77510   1.78564   1.79179
 Alpha virt. eigenvalues --    1.80531   1.81061   1.81556   1.82978   1.84932
 Alpha virt. eigenvalues --    1.85445   1.86223   1.87169   1.88431   1.89095
 Alpha virt. eigenvalues --    1.90382   1.92005   1.94310   1.94781   1.97277
 Alpha virt. eigenvalues --    1.98844   1.99855   2.01169   2.02127   2.03464
 Alpha virt. eigenvalues --    2.04914   2.05858   2.06485   2.07520   2.09476
 Alpha virt. eigenvalues --    2.10248   2.12380   2.12717   2.12875   2.15620
 Alpha virt. eigenvalues --    2.16028   2.17320   2.18896   2.19684   2.21251
 Alpha virt. eigenvalues --    2.21793   2.23475   2.24395   2.25977   2.26199
 Alpha virt. eigenvalues --    2.26895   2.28163   2.31683   2.32386   2.33869
 Alpha virt. eigenvalues --    2.34792   2.34882   2.35886   2.36927   2.38205
 Alpha virt. eigenvalues --    2.39244   2.40921   2.41677   2.42264   2.44843
 Alpha virt. eigenvalues --    2.46224   2.46879   2.47862   2.50882   2.52143
 Alpha virt. eigenvalues --    2.53138   2.54739   2.56530   2.60291   2.64266
 Alpha virt. eigenvalues --    2.65011   2.68613   2.69753   2.70847   2.71749
 Alpha virt. eigenvalues --    2.73563   2.75289   2.76751   2.77693   2.79228
 Alpha virt. eigenvalues --    2.80034   2.82381   2.84128   2.84286   2.86509
 Alpha virt. eigenvalues --    2.89662   2.90622   2.93044   2.93475   2.95411
 Alpha virt. eigenvalues --    2.95662   2.97858   2.98513   3.00211   3.00750
 Alpha virt. eigenvalues --    3.02605   3.02922   3.06559   3.07644   3.09002
 Alpha virt. eigenvalues --    3.14214   3.14734   3.17516   3.19762   3.20723
 Alpha virt. eigenvalues --    3.22197   3.24343   3.26801   3.29430   3.30952
 Alpha virt. eigenvalues --    3.32529   3.34402   3.34848   3.36778   3.38378
 Alpha virt. eigenvalues --    3.40918   3.43347   3.46112   3.46153   3.47901
 Alpha virt. eigenvalues --    3.49679   3.50159   3.51216   3.52689   3.55185
 Alpha virt. eigenvalues --    3.55291   3.58108   3.58944   3.61119   3.61897
 Alpha virt. eigenvalues --    3.63000   3.64132   3.64730   3.66516   3.67646
 Alpha virt. eigenvalues --    3.69933   3.71101   3.72107   3.80000   3.83075
 Alpha virt. eigenvalues --    3.86009   3.89620   3.90024   3.92126   3.96295
 Alpha virt. eigenvalues --    4.00809   4.02771   4.05154   4.15167   4.15509
 Alpha virt. eigenvalues --    4.16433   4.18774   4.19985   4.24019   4.38182
 Alpha virt. eigenvalues --    4.49300   4.52565   4.95581   5.00040   5.03432
 Alpha virt. eigenvalues --    5.06381   5.07687   5.11031   5.13666   5.14504
 Alpha virt. eigenvalues --    5.18410   5.18757   5.20027   5.23284   5.24204
 Alpha virt. eigenvalues --    5.27846   5.31467   5.31717   5.37264   5.39865
 Alpha virt. eigenvalues --    5.43438   5.45015   5.46884   5.53393   5.56379
 Alpha virt. eigenvalues --    5.57082   5.58317   5.62199   5.63398   5.68259
 Alpha virt. eigenvalues --    5.84926   5.94336   5.99181   6.04386   6.80283
 Alpha virt. eigenvalues --    6.81301   6.82029   6.83395   6.84376   6.84622
 Alpha virt. eigenvalues --    6.86788   6.87671   6.88495   6.88934   6.91077
 Alpha virt. eigenvalues --    6.92441   6.93326   6.94316   6.95370   6.97262
 Alpha virt. eigenvalues --    6.99221   7.00191   7.01903   7.05044   7.08320
 Alpha virt. eigenvalues --    7.09308   7.18309   7.20392   7.21877   7.24703
 Alpha virt. eigenvalues --    7.28159   7.31848   7.41777   7.44120   8.61948
 Alpha virt. eigenvalues --   17.76916  17.79338  17.86507  23.91000  23.95214
 Alpha virt. eigenvalues --   24.00104  24.03066  24.04349  24.10106  24.16138
 Alpha virt. eigenvalues --   35.58779  35.68024  50.04877  50.08283  50.10118
 Alpha virt. eigenvalues --   50.10357  50.12634  50.19654 189.92870
          Condensed to atoms (all electrons):
               1          2          3          4          5          6
     1  C    5.937683   0.072196  -0.924735   0.574093   0.380932  -0.026583
     2  C    0.072196   5.814305  -0.087566  -0.113627  -0.002026   0.396621
     3  C   -0.924735  -0.087566   8.138376  -0.395438   0.020628   0.004184
     4  N    0.574093  -0.113627  -0.395438   6.352526  -0.044092   0.011599
     5  H    0.380932  -0.002026   0.020628  -0.044092   0.479924  -0.001132
     6  H   -0.026583   0.396621   0.004184   0.011599  -0.001132   0.478549
     7  H    0.019190   0.007527   0.323825  -0.007033  -0.000068  -0.000061
     8  C   -0.035547   0.004443  -0.291249   0.214287  -0.001711  -0.000642
     9  H   -0.010217   0.032774   0.030753  -0.075002   0.002539  -0.000025
    10  H    0.002123  -0.009901  -0.017043  -0.037699   0.000229   0.000012
    11  H   -0.020524   0.002076   0.050881  -0.053407   0.000129   0.000005
    12  N    0.061363   0.234674  -0.003627   0.081802   0.007341  -0.036039
    13  C    0.066877  -0.183693  -0.170746  -0.011518   0.000244   0.013574
    14  H    0.010976  -0.017473  -0.002982  -0.000935  -0.000014   0.000167
    15  H   -0.000913  -0.002991  -0.015755   0.008524   0.000011  -0.000078
    16  C   -0.047246  -0.110736   0.167590  -0.024609  -0.000008   0.001815
    17  H    0.000945   0.008137  -0.004964   0.000126  -0.000000  -0.000389
    18  H   -0.001203   0.004903  -0.008666   0.000570   0.000018   0.000371
    19  C   -0.088592   0.174068   0.132818  -0.004258   0.000292  -0.002827
    20  H    0.000624  -0.000350   0.003018  -0.000239  -0.000000  -0.000005
    21  H    0.000011  -0.001028  -0.003389   0.000316  -0.000000   0.000007
    22  S    0.076023   0.002707  -0.271512   0.026559  -0.000010   0.000537
    23  O   -0.002488   0.017985  -0.030103   0.002036  -0.000002  -0.000043
    24  O    0.023742  -0.017673   0.017428  -0.017609  -0.000028  -0.001939
    25  O    0.036208  -0.034279  -0.247818   0.078418  -0.000041   0.000215
    26  O    0.001953  -0.000855  -0.007386   0.001942  -0.000002   0.000000
    27  H    0.000013   0.000061  -0.001058   0.000227  -0.000000   0.000000
    28  H   -0.000937   0.000592   0.004147  -0.000635   0.000000  -0.000000
    29  O    0.003301  -0.001997  -0.015078   0.001740  -0.000002  -0.000001
    30  H   -0.001075   0.000788   0.004959  -0.000441   0.000000  -0.000000
    31  H   -0.000299   0.000023   0.001933  -0.000257   0.000000   0.000000
    32  O    0.016447  -0.013227  -0.044085   0.006636  -0.000038   0.000025
    33  H   -0.002898   0.001772   0.017401  -0.004502   0.000005  -0.000001
    34  H   -0.007356   0.005510   0.041394  -0.014047   0.000010  -0.000015
               7          8          9         10         11         12
     1  C    0.019190  -0.035547  -0.010217   0.002123  -0.020524   0.061363
     2  C    0.007527   0.004443   0.032774  -0.009901   0.002076   0.234674
     3  C    0.323825  -0.291249   0.030753  -0.017043   0.050881  -0.003627
     4  N   -0.007033   0.214287  -0.075002  -0.037699  -0.053407   0.081802
     5  H   -0.000068  -0.001711   0.002539   0.000229   0.000129   0.007341
     6  H   -0.000061  -0.000642  -0.000025   0.000012   0.000005  -0.036039
     7  H    0.420454   0.009282  -0.000200   0.000202   0.000999  -0.018119
     8  C    0.009282   5.379694   0.381596   0.438215   0.383792   0.018830
     9  H   -0.000200   0.381596   0.518449  -0.023455  -0.012000  -0.004713
    10  H    0.000202   0.438215  -0.023455   0.498027  -0.026133  -0.002260
    11  H    0.000999   0.383792  -0.012000  -0.026133   0.397412   0.000063
    12  N   -0.018119   0.018830  -0.004713  -0.002260   0.000063   6.300139
    13  C   -0.003196  -0.003463   0.001169  -0.001250  -0.000110   0.155647
    14  H    0.000480   0.000066  -0.000003  -0.000011   0.000005  -0.043236
    15  H    0.003855   0.001314  -0.000001  -0.000001   0.000000  -0.048410
    16  C   -0.001290  -0.011431   0.000189   0.000188   0.000766  -0.052491
    17  H   -0.000004   0.000105  -0.000000  -0.000000  -0.000000  -0.000258
    18  H    0.000178  -0.000041  -0.000000  -0.000000  -0.000003  -0.001896
    19  C   -0.000755  -0.004068   0.000063  -0.000056   0.000329   0.056077
    20  H   -0.000025  -0.000039  -0.000000   0.000000  -0.000000  -0.000129
    21  H    0.000168   0.000089  -0.000000   0.000000  -0.000001  -0.001175
    22  S    0.010487  -0.001682  -0.000265  -0.000096   0.003134  -0.051332
    23  O    0.000583   0.002276  -0.000009  -0.000001  -0.000030  -0.016415
    24  O    0.001790  -0.002242  -0.000119  -0.000034  -0.000501   0.044032
    25  O   -0.009372   0.023285  -0.000166  -0.000155  -0.003690   0.039486
    26  O    0.000247  -0.002655   0.000027   0.000010   0.000720   0.000738
    27  H    0.000002   0.000535  -0.000007   0.000000  -0.000150   0.000013
    28  H   -0.000033   0.000383   0.000001   0.000000  -0.000148  -0.000303
    29  O    0.000087  -0.001446   0.000000   0.000001   0.000161   0.001544
    30  H   -0.000034   0.000109   0.000001   0.000000  -0.000007  -0.000338
    31  H   -0.000009   0.000051   0.000000  -0.000000  -0.000021  -0.000244
    32  O   -0.004910  -0.020303  -0.000562   0.001355  -0.024799   0.017103
    33  H   -0.000147  -0.003696   0.000235  -0.000008   0.009113  -0.002496
    34  H    0.005355  -0.013533   0.000295  -0.000044   0.006363  -0.003245
              13         14         15         16         17         18
     1  C    0.066877   0.010976  -0.000913  -0.047246   0.000945  -0.001203
     2  C   -0.183693  -0.017473  -0.002991  -0.110736   0.008137   0.004903
     3  C   -0.170746  -0.002982  -0.015755   0.167590  -0.004964  -0.008666
     4  N   -0.011518  -0.000935   0.008524  -0.024609   0.000126   0.000570
     5  H    0.000244  -0.000014   0.000011  -0.000008  -0.000000   0.000018
     6  H    0.013574   0.000167  -0.000078   0.001815  -0.000389   0.000371
     7  H   -0.003196   0.000480   0.003855  -0.001290  -0.000004   0.000178
     8  C   -0.003463   0.000066   0.001314  -0.011431   0.000105  -0.000041
     9  H    0.001169  -0.000003  -0.000001   0.000189  -0.000000  -0.000000
    10  H   -0.001250  -0.000011  -0.000001   0.000188  -0.000000  -0.000000
    11  H   -0.000110   0.000005   0.000000   0.000766  -0.000000  -0.000003
    12  N    0.155647  -0.043236  -0.048410  -0.052491  -0.000258  -0.001896
    13  C    6.055253   0.436157   0.452305  -0.195728  -0.020212  -0.066333
    14  H    0.436157   0.512897  -0.022279  -0.066693  -0.007116   0.000528
    15  H    0.452305  -0.022279   0.451597  -0.038343   0.000805   0.003645
    16  C   -0.195728  -0.066693  -0.038343   6.511138   0.376136   0.482405
    17  H   -0.020212  -0.007116   0.000805   0.376136   0.529633  -0.029525
    18  H   -0.066333   0.000528   0.003645   0.482405  -0.029525   0.477960
    19  C   -0.134588   0.011561  -0.015386  -0.831697  -0.004820  -0.059032
    20  H    0.019391  -0.000121  -0.000148  -0.056823  -0.005048  -0.004465
    21  H   -0.019285  -0.000026   0.002837  -0.023748  -0.005917   0.005108
    22  S   -0.028886   0.004472   0.010176   0.155075  -0.003351   0.019434
    23  O   -0.004415  -0.000042  -0.000210  -0.046356  -0.000142   0.000459
    24  O    0.033999   0.000234   0.000890  -0.020978   0.001107  -0.006180
    25  O   -0.005558   0.002352   0.004250   0.025161  -0.000461   0.001841
    26  O    0.000450   0.000000   0.000003   0.000063   0.000000   0.000001
    27  H   -0.000015  -0.000000   0.000000  -0.000016   0.000000   0.000000
    28  H   -0.000091  -0.000000  -0.000000  -0.000612   0.000000   0.000001
    29  O    0.000330   0.000000   0.000000   0.003811  -0.000000  -0.000006
    30  H   -0.000082  -0.000000  -0.000003  -0.000904  -0.000000  -0.000001
    31  H    0.000027  -0.000000   0.000000   0.000760  -0.000000   0.000000
    32  O    0.007899  -0.000005   0.000245  -0.002754   0.000002   0.000067
    33  H   -0.000934   0.000000  -0.000000  -0.000193  -0.000000  -0.000003
    34  H   -0.001976   0.000007  -0.000473  -0.001098   0.000003  -0.000076
              19         20         21         22         23         24
     1  C   -0.088592   0.000624   0.000011   0.076023  -0.002488   0.023742
     2  C    0.174068  -0.000350  -0.001028   0.002707   0.017985  -0.017673
     3  C    0.132818   0.003018  -0.003389  -0.271512  -0.030103   0.017428
     4  N   -0.004258  -0.000239   0.000316   0.026559   0.002036  -0.017609
     5  H    0.000292  -0.000000  -0.000000  -0.000010  -0.000002  -0.000028
     6  H   -0.002827  -0.000005   0.000007   0.000537  -0.000043  -0.001939
     7  H   -0.000755  -0.000025   0.000168   0.010487   0.000583   0.001790
     8  C   -0.004068  -0.000039   0.000089  -0.001682   0.002276  -0.002242
     9  H    0.000063  -0.000000  -0.000000  -0.000265  -0.000009  -0.000119
    10  H   -0.000056   0.000000   0.000000  -0.000096  -0.000001  -0.000034
    11  H    0.000329  -0.000000  -0.000001   0.003134  -0.000030  -0.000501
    12  N    0.056077  -0.000129  -0.001175  -0.051332  -0.016415   0.044032
    13  C   -0.134588   0.019391  -0.019285  -0.028886  -0.004415   0.033999
    14  H    0.011561  -0.000121  -0.000026   0.004472  -0.000042   0.000234
    15  H   -0.015386  -0.000148   0.002837   0.010176  -0.000210   0.000890
    16  C   -0.831697  -0.056823  -0.023748   0.155075  -0.046356  -0.020978
    17  H   -0.004820  -0.005048  -0.005917  -0.003351  -0.000142   0.001107
    18  H   -0.059032  -0.004465   0.005108   0.019434   0.000459  -0.006180
    19  C    7.295531   0.427835   0.416423  -0.447843  -0.105953  -0.154717
    20  H    0.427835   0.467557  -0.027539  -0.045483   0.011980   0.003108
    21  H    0.416423  -0.027539   0.462771  -0.024812   0.006619  -0.003552
    22  S   -0.447843  -0.045483  -0.024812  14.177767   0.445411   0.507995
    23  O   -0.105953   0.011980   0.006619   0.445411   8.338202  -0.103562
    24  O   -0.154717   0.003108  -0.003552   0.507995  -0.103562   8.359101
    25  O   -0.157984  -0.000939   0.011424   0.279005  -0.032158  -0.025814
    26  O   -0.000277   0.000002   0.000004   0.007724   0.001362  -0.001171
    27  H   -0.000002  -0.000000  -0.000000  -0.000759   0.000342   0.000020
    28  H    0.001373  -0.000004  -0.000001  -0.002160  -0.001547  -0.001011
    29  O   -0.003727   0.000072   0.000020   0.031696  -0.008861   0.002296
    30  H    0.005916  -0.000099  -0.000030  -0.002780   0.032094   0.003036
    31  H   -0.004129   0.000029   0.000002  -0.002114  -0.002284   0.002881
    32  O   -0.016097   0.000002   0.000194  -0.037935  -0.003330   0.004216
    33  H    0.003049  -0.000001  -0.000008   0.007922  -0.000539  -0.001429
    34  H    0.014772   0.000021  -0.000347   0.035927   0.003078  -0.001299
              25         26         27         28         29         30
     1  C    0.036208   0.001953   0.000013  -0.000937   0.003301  -0.001075
     2  C   -0.034279  -0.000855   0.000061   0.000592  -0.001997   0.000788
     3  C   -0.247818  -0.007386  -0.001058   0.004147  -0.015078   0.004959
     4  N    0.078418   0.001942   0.000227  -0.000635   0.001740  -0.000441
     5  H   -0.000041  -0.000002  -0.000000   0.000000  -0.000002   0.000000
     6  H    0.000215   0.000000   0.000000  -0.000000  -0.000001  -0.000000
     7  H   -0.009372   0.000247   0.000002  -0.000033   0.000087  -0.000034
     8  C    0.023285  -0.002655   0.000535   0.000383  -0.001446   0.000109
     9  H   -0.000166   0.000027  -0.000007   0.000001   0.000000   0.000001
    10  H   -0.000155   0.000010   0.000000   0.000000   0.000001   0.000000
    11  H   -0.003690   0.000720  -0.000150  -0.000148   0.000161  -0.000007
    12  N    0.039486   0.000738   0.000013  -0.000303   0.001544  -0.000338
    13  C   -0.005558   0.000450  -0.000015  -0.000091   0.000330  -0.000082
    14  H    0.002352   0.000000  -0.000000  -0.000000   0.000000  -0.000000
    15  H    0.004250   0.000003   0.000000  -0.000000   0.000000  -0.000003
    16  C    0.025161   0.000063  -0.000016  -0.000612   0.003811  -0.000904
    17  H   -0.000461   0.000000   0.000000   0.000000  -0.000000  -0.000000
    18  H    0.001841   0.000001   0.000000   0.000001  -0.000006  -0.000001
    19  C   -0.157984  -0.000277  -0.000002   0.001373  -0.003727   0.005916
    20  H   -0.000939   0.000002  -0.000000  -0.000004   0.000072  -0.000099
    21  H    0.011424   0.000004  -0.000000  -0.000001   0.000020  -0.000030
    22  S    0.279005   0.007724  -0.000759  -0.002160   0.031696  -0.002780
    23  O   -0.032158   0.001362   0.000342  -0.001547  -0.008861   0.032094
    24  O   -0.025814  -0.001171   0.000020  -0.001011   0.002296   0.003036
    25  O    8.744296  -0.000576   0.000202   0.001459  -0.005246   0.003738
    26  O   -0.000576   8.265147   0.270530   0.255498  -0.003547  -0.008221
    27  H    0.000202   0.270530   0.436690  -0.015921   0.006064   0.000074
    28  H    0.001459   0.255498  -0.015921   0.351605  -0.054016   0.025659
    29  O   -0.005246  -0.003547   0.006064  -0.054016   8.110276   0.266491
    30  H    0.003738  -0.008221   0.000074   0.025659   0.266491   0.310801
    31  H   -0.001112  -0.004622  -0.000257   0.008384   0.295988  -0.005412
    32  O    0.046033   0.013567   0.002559   0.003418  -0.004508   0.000023
    33  H   -0.007478  -0.037988   0.000029   0.001858  -0.000630   0.000687
    34  H   -0.007095   0.001317  -0.000256  -0.001224   0.001809  -0.000173
              31         32         33         34
     1  C   -0.000299   0.016447  -0.002898  -0.007356
     2  C    0.000023  -0.013227   0.001772   0.005510
     3  C    0.001933  -0.044085   0.017401   0.041394
     4  N   -0.000257   0.006636  -0.004502  -0.014047
     5  H    0.000000  -0.000038   0.000005   0.000010
     6  H    0.000000   0.000025  -0.000001  -0.000015
     7  H   -0.000009  -0.004910  -0.000147   0.005355
     8  C    0.000051  -0.020303  -0.003696  -0.013533
     9  H    0.000000  -0.000562   0.000235   0.000295
    10  H   -0.000000   0.001355  -0.000008  -0.000044
    11  H   -0.000021  -0.024799   0.009113   0.006363
    12  N   -0.000244   0.017103  -0.002496  -0.003245
    13  C    0.000027   0.007899  -0.000934  -0.001976
    14  H   -0.000000  -0.000005   0.000000   0.000007
    15  H    0.000000   0.000245  -0.000000  -0.000473
    16  C    0.000760  -0.002754  -0.000193  -0.001098
    17  H   -0.000000   0.000002  -0.000000   0.000003
    18  H    0.000000   0.000067  -0.000003  -0.000076
    19  C   -0.004129  -0.016097   0.003049   0.014772
    20  H    0.000029   0.000002  -0.000001   0.000021
    21  H    0.000002   0.000194  -0.000008  -0.000347
    22  S   -0.002114  -0.037935   0.007922   0.035927
    23  O   -0.002284  -0.003330  -0.000539   0.003078
    24  O    0.002881   0.004216  -0.001429  -0.001299
    25  O   -0.001112   0.046033  -0.007478  -0.007095
    26  O   -0.004622   0.013567  -0.037988   0.001317
    27  H   -0.000257   0.002559   0.000029  -0.000256
    28  H    0.008384   0.003418   0.001858  -0.001224
    29  O    0.295988  -0.004508  -0.000630   0.001809
    30  H   -0.005412   0.000023   0.000687  -0.000173
    31  H    0.430194   0.000684  -0.000244  -0.000184
    32  O    0.000684   8.242504   0.254925   0.221310
    33  H   -0.000244   0.254925   0.388188   0.010641
    34  H   -0.000184   0.221310   0.010641   0.379389
 Mulliken charges:
               1
     1  C   -0.114087
     2  C   -0.183739
     3  C   -0.416136
     4  N    0.443949
     5  H    0.156873
     6  H    0.162097
     7  H    0.240544
     8  C   -0.464604
     9  H    0.158655
    10  H    0.177784
    11  H    0.285575
    12  N    0.267876
    13  C   -0.391243
    14  H    0.181032
    15  H    0.204535
    16  C   -0.191342
    17  H    0.165209
    18  H    0.179941
    19  C   -0.503299
    20  H    0.207816
    21  H    0.204865
    22  S    1.118968
    23  O   -0.503937
    24  O   -0.646016
    25  O   -0.757430
    26  O   -0.754007
    27  H    0.301079
    28  H    0.424264
    29  O   -0.626621
    30  H    0.365225
    31  H    0.280230
    32  O   -0.666662
    33  H    0.367367
    34  H    0.325240
 Sum of Mulliken charges =  -0.00000
 Mulliken charges with hydrogens summed into heavy atoms:
               1
     1  C    0.042785
     2  C   -0.021641
     3  C   -0.175592
     4  N    0.443949
     8  C    0.157409
    12  N    0.267876
    13  C   -0.005676
    16  C    0.153809
    19  C   -0.090619
    22  S    1.118968
    23  O   -0.503937
    24  O   -0.646016
    25  O   -0.757430
    26  O   -0.028663
    29  O    0.018834
    32  O    0.025946
         Mulliken charges condensed to fragments:
      1     -0.016116
      2     -0.028663
      3      0.018834
      4      0.025946
 Electronic spatial extent (au):  <R**2>=         149040.9843
 Charge=             -0.0000 electrons
 Dipole moment (field-independent basis, Debye):
    X=              6.4019    Y=             -3.5690    Z=              7.6431  Tot=             10.5895
 Quadrupole moment (field-independent basis, Debye-Ang):
   XX=             13.8630   YY=           -161.5024   ZZ=             48.0852
   XY=             35.8605   XZ=            140.9741   YZ=             51.6573
 Traceless Quadrupole moment (field-independent basis, Debye-Ang):
   XX=             47.0477   YY=           -128.3177   ZZ=             81.2699
   XY=             35.8605   XZ=            140.9741   YZ=             51.6573
 Octapole moment (field-independent basis, Debye-Ang**2):
  XXX=          -1279.8464  YYY=          -3906.7397  ZZZ=           -815.1780  XYY=           -758.4825
  XXY=           -113.4174  XXZ=            912.3355  XZZ=           1186.6481  YZZ=            281.6729
  YYZ=           -605.2216  XYZ=           1225.0263
 Hexadecapole moment (field-independent basis, Debye-Ang**3):
 XXXX=         -35759.8498 YYYY=         -75519.5540 ZZZZ=         -33057.0820 XXXY=         -15619.8308
 XXXZ=          -5374.6888 YYYX=         -28520.7707 YYYZ=         -27097.6136 ZZZX=           -430.9908
 ZZZY=          -9880.7016 XXYY=         -11945.4960 XXZZ=           6918.1752 YYZZ=          -8340.4635
 XXYZ=           7579.0975 YYXZ=           2154.3798 ZZXY=          10434.0098
 N-N= 1.474395082628D+03 E-N=-5.860970933211D+03  KE= 1.232400977746D+03
 No NMR shielding tensors so no spin-rotation constants.
 Leave Link  601 at Sun Feb 19 14:01:57 2023, MaxMem=  6710886400 cpu:               3.8 elap:               0.2
 (Enter /data0/home/software/g16/l122.exe)
 CPIOFr:  IOpCl= 0 IRwI=-1 IRwCP=  731 ICalc= -1 LCPTot=      462135 Len1MO=     1212762 IndFrg=      462135
 CPIOFr:  IOpCl= 0 IRwI=-1 IRwCP=  731 ICalc=  0 LCPTot=      462135 Len1MO=     1212762 IndFrg=     1674897
 Counterpoise: doing calculation for fragment   1 using the basis set of the full-system, NewBq=T
 Leave Link  122 at Sun Feb 19 14:01:57 2023, MaxMem=  6710886400 cpu:               0.5 elap:               0.0
 (Enter /data0/home/software/g16/l301.exe)
 Basis read from rwf:  (5D, 7F)
 No pseudopotential information found on rwf file.
   548 basis functions,   830 primitive gaussians,   580 cartesian basis functions
    54 alpha electrons       54 beta electrons
       nuclear repulsion energy      1028.6139287044 Hartrees.
 IExCor= 4336 DFT=T Ex+Corr=M062X ExCW=0 ScaHFX=  0.540000
 ScaDFX=  1.000000  1.000000  1.000000  1.000000 ScalE2=  1.000000  1.000000
 IRadAn=      5 IRanWt=     -1 IRanGd=            0 ICorTp=0 IEmpDi=131
 NAtoms=   34 NActive=   34 NUniq=   34 SFac= 1.00D+00 NAtFMM=   60 NAOKFM=F Big=F
 Integral buffers will be    131072 words long.
 Raffenetti 2 integral format.
 Two-electron integral symmetry is turned off.
 R6Disp:  Grimme-D3 Dispersion energy=       -0.0011930143 Hartrees.
 Nuclear repulsion after empirical dispersion term =     1028.6127356901 Hartrees.
 No density basis found on file   718.
 Leave Link  301 at Sun Feb 19 14:01:58 2023, MaxMem=  6710886400 cpu:               1.3 elap:               0.1
 (Enter /data0/home/software/g16/l302.exe)
 NPDir=0 NMtPBC=     1 NCelOv=     1 NCel=       1 NClECP=     1 NCelD=      1
         NCelK=      1 NCelE2=     1 NClLst=     1 CellRange=     0.0.
 One-electron integrals computed using PRISM.
 NBasis=   548 RedAO= T EigKep=  1.21D-05  NBF=   548
 NBsUse=   548 1.00D-06 EigRej= -1.00D+00 NBFU=   548
 Precomputing XC quadrature grid using
 IXCGrd= 4 IRadAn=           5 IRanWt=          -1 IRanGd=           0 AccXCQ= 0.00D+00.
 Generated NRdTot=       0 NPtTot=           0 NUsed=           0 NTot=          32
 NSgBfM=   579   579   579   579   579 MxSgAt=    34 MxSgA2=    34.
 Leave Link  302 at Sun Feb 19 14:01:58 2023, MaxMem=  6710886400 cpu:              13.7 elap:               0.6
 (Enter /data0/home/software/g16/l303.exe)
 DipDrv:  MaxL=1.
 Leave Link  303 at Sun Feb 19 14:01:58 2023, MaxMem=  6710886400 cpu:               1.3 elap:               0.1
 (Enter /data0/home/software/g16/l401.exe)
 ExpMin= 4.05D-02 ExpMax= 9.34D+04 ExpMxC= 3.17D+03 IAcc=3 IRadAn=         5 AccDes= 0.00D+00
 Harris functional with IExCor= 1009 and IRadAn=       5 diagonalized for initial guess.
 HarFok:  IExCor= 1009 AccDes= 0.00D+00 IRadAn=         5 IDoV= 1 UseB2=F ITyADJ=14
 ICtDFT=  3500011 ScaDFX=  1.000000  1.000000  1.000000  1.000000
 FoFCou: FMM=F IPFlag=           0 FMFlag=      100000 FMFlg1=           0
         NFxFlg=           0 DoJE=T BraDBF=F KetDBF=T FulRan=T
         wScrn=  0.000000 ICntrl=       500 IOpCl=  0 I1Cent=   200000004 NGrid=           0
         NMat0=    1 NMatS0=      1 NMatT0=    0 NMatD0=    1 NMtDS0=    0 NMtDT0=    0
 Symmetry not used in FoFCou.
 Harris En= -1006.80961279508    
 JPrj=0 DoOrth=F DoCkMO=F.
 Leave Link  401 at Sun Feb 19 14:02:01 2023, MaxMem=  6710886400 cpu:              57.0 elap:               2.4
 (Enter /data0/home/software/g16/l502.exe)
 Two-electron integral symmetry not used.
 Closed shell SCF:
 Using DIIS extrapolation, IDIIS=  1040.
 NGot=  6710886400 LenX=  6710195554 LenY=  6709858574
 Requested convergence on RMS density matrix=1.00D-08 within 128 cycles.
 Requested convergence on MAX density matrix=1.00D-06.
 Requested convergence on             energy=1.00D-06.
 No special actions if energy rises.
 Fock matrices will be formed incrementally for  20 cycles.

 Cycle   1  Pass 1  IDiag  1:
 FoFJK:  IHMeth= 1 ICntrl=       0 DoSepK=F KAlg= 0 I1Cent=           0 FoldK=F
 IRaf= 850000000 NMat=       1 IRICut=       1 DoRegI=T DoRafI=F ISym2E= 0 IDoP0=0 IntGTp=1.
 FoFCou: FMM=F IPFlag=           0 FMFlag=      100000 FMFlg1=           0
         NFxFlg=           0 DoJE=F BraDBF=F KetDBF=F FulRan=T
         wScrn=  0.000000 ICntrl=         0 IOpCl=  0 I1Cent=           0 NGrid=           0
         NMat0=    1 NMatS0=      1 NMatT0=    0 NMatD0=    1 NMtDS0=    0 NMtDT0=    0
 Symmetry not used in FoFCou.
 E= -1006.77398291538    
 DIIS: error= 1.68D-02 at cycle   1 NSaved=   1.
 NSaved= 1 IEnMin= 1 EnMin= -1006.77398291538     IErMin= 1 ErrMin= 1.68D-02
 ErrMax= 1.68D-02  0.00D+00 EMaxC= 1.00D-01 BMatC= 7.13D-01 BMatP= 7.13D-01
 IDIUse=3 WtCom= 8.32D-01 WtEn= 1.68D-01
 Coeff-Com:  0.100D+01
 Coeff-En:   0.100D+01
 Coeff:      0.100D+01
 Gap=     0.282 Goal=   None    Shift=    0.000
 GapD=    0.282 DampG=1.000 DampE=0.500 DampFc=0.5000 IDamp=-1.
 Damping current iteration by 5.00D-01
 RMSDP=4.58D-03 MaxDP=6.91D-01              OVMax= 1.90D-01

 Cycle   2  Pass 1  IDiag  1:
 RMSU=  2.28D-03    CP:  1.02D+00
 E= -1006.96691875099     Delta-E=       -0.192935835614 Rises=F Damp=T
 DIIS: error= 5.40D-03 at cycle   2 NSaved=   2.
 NSaved= 2 IEnMin= 2 EnMin= -1006.96691875099     IErMin= 2 ErrMin= 5.40D-03
 ErrMax= 5.40D-03  0.00D+00 EMaxC= 1.00D-01 BMatC= 5.00D-02 BMatP= 7.13D-01
 IDIUse=3 WtCom= 9.46D-01 WtEn= 5.40D-02
 Coeff-Com:  0.311D-01 0.969D+00
 Coeff-En:   0.111D+00 0.889D+00
 Coeff:      0.354D-01 0.965D+00
 Gap=     0.256 Goal=   None    Shift=    0.000
 RMSDP=1.66D-03 MaxDP=2.57D-01 DE=-1.93D-01 OVMax= 1.19D-01

 Cycle   3  Pass 1  IDiag  1:
 RMSU=  1.43D-03    CP:  9.35D-01  8.36D-01
 E= -1007.19984452066     Delta-E=       -0.232925769668 Rises=F Damp=F
 DIIS: error= 3.06D-03 at cycle   3 NSaved=   3.
 NSaved= 3 IEnMin= 3 EnMin= -1007.19984452066     IErMin= 3 ErrMin= 3.06D-03
 ErrMax= 3.06D-03  0.00D+00 EMaxC= 1.00D-01 BMatC= 1.88D-02 BMatP= 5.00D-02
 IDIUse=3 WtCom= 9.69D-01 WtEn= 3.06D-02
 Coeff-Com: -0.625D-01 0.351D+00 0.711D+00
 Coeff-En:   0.000D+00 0.000D+00 0.100D+01
 Coeff:     -0.605D-01 0.340D+00 0.720D+00
 Gap=     0.252 Goal=   None    Shift=    0.000
 RMSDP=4.87D-04 MaxDP=7.70D-02 DE=-2.33D-01 OVMax= 3.27D-02

 Cycle   4  Pass 1  IDiag  1:
 RMSU=  4.04D-04    CP:  9.40D-01  9.48D-01  9.46D-01
 E= -1007.21147665553     Delta-E=       -0.011632134867 Rises=F Damp=F
 DIIS: error= 1.52D-03 at cycle   4 NSaved=   4.
 NSaved= 4 IEnMin= 4 EnMin= -1007.21147665553     IErMin= 4 ErrMin= 1.52D-03
 ErrMax= 1.52D-03  0.00D+00 EMaxC= 1.00D-01 BMatC= 2.91D-03 BMatP= 1.88D-02
 IDIUse=3 WtCom= 9.85D-01 WtEn= 1.52D-02
 Coeff-Com: -0.292D-01 0.824D-01 0.343D+00 0.604D+00
 Coeff-En:   0.000D+00 0.000D+00 0.987D-01 0.901D+00
 Coeff:     -0.288D-01 0.812D-01 0.339D+00 0.608D+00
 Gap=     0.252 Goal=   None    Shift=    0.000
 RMSDP=1.74D-04 MaxDP=2.54D-02 DE=-1.16D-02 OVMax= 1.16D-02

 Cycle   5  Pass 1  IDiag  1:
 RMSU=  1.02D-04    CP:  9.36D-01  9.22D-01  9.74D-01  7.13D-01
 E= -1007.21401750263     Delta-E=       -0.002540847101 Rises=F Damp=F
 DIIS: error= 2.62D-04 at cycle   5 NSaved=   5.
 NSaved= 5 IEnMin= 5 EnMin= -1007.21401750263     IErMin= 5 ErrMin= 2.62D-04
 ErrMax= 2.62D-04  0.00D+00 EMaxC= 1.00D-01 BMatC= 1.29D-04 BMatP= 2.91D-03
 IDIUse=3 WtCom= 9.97D-01 WtEn= 2.62D-03
 Coeff-Com: -0.875D-02 0.177D-01 0.106D+00 0.259D+00 0.626D+00
 Coeff-En:   0.000D+00 0.000D+00 0.000D+00 0.000D+00 0.100D+01
 Coeff:     -0.873D-02 0.176D-01 0.106D+00 0.258D+00 0.627D+00
 Gap=     0.251 Goal=   None    Shift=    0.000
 RMSDP=4.80D-05 MaxDP=5.86D-03 DE=-2.54D-03 OVMax= 2.47D-03

 Cycle   6  Pass 1  IDiag  1:
 RMSU=  2.79D-05    CP:  9.36D-01  9.29D-01  9.73D-01  7.67D-01  7.25D-01
 E= -1007.21410785014     Delta-E=       -0.000090347508 Rises=F Damp=F
 DIIS: error= 1.16D-04 at cycle   6 NSaved=   6.
 NSaved= 6 IEnMin= 6 EnMin= -1007.21410785014     IErMin= 6 ErrMin= 1.16D-04
 ErrMax= 1.16D-04  0.00D+00 EMaxC= 1.00D-01 BMatC= 2.18D-05 BMatP= 1.29D-04
 IDIUse=3 WtCom= 9.99D-01 WtEn= 1.16D-03
 Coeff-Com: -0.167D-02 0.130D-02 0.214D-01 0.772D-01 0.336D+00 0.566D+00
 Coeff-En:   0.000D+00 0.000D+00 0.000D+00 0.000D+00 0.373D-01 0.963D+00
 Coeff:     -0.167D-02 0.130D-02 0.214D-01 0.771D-01 0.336D+00 0.566D+00
 Gap=     0.252 Goal=   None    Shift=    0.000
 RMSDP=1.41D-05 MaxDP=1.10D-03 DE=-9.03D-05 OVMax= 8.96D-04

 Cycle   7  Pass 1  IDiag  1:
 RMSU=  1.20D-05    CP:  9.36D-01  9.28D-01  9.76D-01  7.77D-01  7.48D-01
                    CP:  9.11D-01
 E= -1007.21412419702     Delta-E=       -0.000016346879 Rises=F Damp=F
 DIIS: error= 2.40D-05 at cycle   7 NSaved=   7.
 NSaved= 7 IEnMin= 7 EnMin= -1007.21412419702     IErMin= 7 ErrMin= 2.40D-05
 ErrMax= 2.40D-05  0.00D+00 EMaxC= 1.00D-01 BMatC= 1.34D-06 BMatP= 2.18D-05
 IDIUse=1 WtCom= 1.00D+00 WtEn= 0.00D+00
 Coeff-Com:  0.501D-03-0.181D-02-0.603D-02-0.286D-02 0.540D-01 0.220D+00
 Coeff-Com:  0.736D+00
 Coeff:      0.501D-03-0.181D-02-0.603D-02-0.286D-02 0.540D-01 0.220D+00
 Coeff:      0.736D+00
 Gap=     0.252 Goal=   None    Shift=    0.000
 RMSDP=4.59D-06 MaxDP=6.26D-04 DE=-1.63D-05 OVMax= 3.08D-04

 Cycle   8  Pass 1  IDiag  1:
 RMSU=  3.48D-06    CP:  9.36D-01  9.27D-01  9.77D-01  7.78D-01  7.66D-01
                    CP:  9.36D-01  8.94D-01
 E= -1007.21412545303     Delta-E=       -0.000001256014 Rises=F Damp=F
 DIIS: error= 1.03D-05 at cycle   8 NSaved=   8.
 NSaved= 8 IEnMin= 8 EnMin= -1007.21412545303     IErMin= 8 ErrMin= 1.03D-05
 ErrMax= 1.03D-05  0.00D+00 EMaxC= 1.00D-01 BMatC= 1.24D-07 BMatP= 1.34D-06
 IDIUse=1 WtCom= 1.00D+00 WtEn= 0.00D+00
 Coeff-Com:  0.346D-03-0.721D-03-0.482D-02-0.101D-01-0.210D-01 0.815D-02
 Coeff-Com:  0.252D+00 0.776D+00
 Coeff:      0.346D-03-0.721D-03-0.482D-02-0.101D-01-0.210D-01 0.815D-02
 Coeff:      0.252D+00 0.776D+00
 Gap=     0.252 Goal=   None    Shift=    0.000
 RMSDP=1.60D-06 MaxDP=7.18D-05 DE=-1.26D-06 OVMax= 1.93D-04

 Cycle   9  Pass 1  IDiag  1:
 RMSU=  1.21D-06    CP:  9.36D-01  9.27D-01  9.77D-01  7.79D-01  7.72D-01
                    CP:  9.52D-01  9.34D-01  9.95D-01
 E= -1007.21412560199     Delta-E=       -0.000000148962 Rises=F Damp=F
 DIIS: error= 4.40D-06 at cycle   9 NSaved=   9.
 NSaved= 9 IEnMin= 9 EnMin= -1007.21412560199     IErMin= 9 ErrMin= 4.40D-06
 ErrMax= 4.40D-06  0.00D+00 EMaxC= 1.00D-01 BMatC= 1.68D-08 BMatP= 1.24D-07
 IDIUse=1 WtCom= 1.00D+00 WtEn= 0.00D+00
 Coeff-Com:  0.108D-03-0.176D-03-0.172D-02-0.424D-02-0.130D-01-0.111D-01
 Coeff-Com:  0.531D-01 0.329D+00 0.648D+00
 Coeff:      0.108D-03-0.176D-03-0.172D-02-0.424D-02-0.130D-01-0.111D-01
 Coeff:      0.531D-01 0.329D+00 0.648D+00
 Gap=     0.252 Goal=   None    Shift=    0.000
 RMSDP=5.14D-07 MaxDP=5.34D-05 DE=-1.49D-07 OVMax= 4.78D-05

 Cycle  10  Pass 1  IDiag  1:
 RMSU=  3.73D-07    CP:  9.36D-01  9.27D-01  9.77D-01  7.79D-01  7.71D-01
                    CP:  9.54D-01  9.45D-01  1.06D+00  9.51D-01
 E= -1007.21412561911     Delta-E=       -0.000000017114 Rises=F Damp=F
 DIIS: error= 1.43D-06 at cycle  10 NSaved=  10.
 NSaved=10 IEnMin=10 EnMin= -1007.21412561911     IErMin=10 ErrMin= 1.43D-06
 ErrMax= 1.43D-06  0.00D+00 EMaxC= 1.00D-01 BMatC= 2.01D-09 BMatP= 1.68D-08
 IDIUse=1 WtCom= 1.00D+00 WtEn= 0.00D+00
 Coeff-Com: -0.940D-05 0.359D-04 0.461D-05-0.259D-03-0.234D-02-0.572D-02
 Coeff-Com: -0.160D-01 0.202D-01 0.259D+00 0.745D+00
 Coeff:     -0.940D-05 0.359D-04 0.461D-05-0.259D-03-0.234D-02-0.572D-02
 Coeff:     -0.160D-01 0.202D-01 0.259D+00 0.745D+00
 Gap=     0.252 Goal=   None    Shift=    0.000
 RMSDP=1.99D-07 MaxDP=1.93D-05 DE=-1.71D-08 OVMax= 2.59D-05

 Cycle  11  Pass 1  IDiag  1:
 RMSU=  1.33D-07    CP:  9.36D-01  9.27D-01  9.77D-01  7.79D-01  7.71D-01
                    CP:  9.53D-01  9.44D-01  1.08D+00  1.03D+00  1.08D+00
 E= -1007.21412562157     Delta-E=       -0.000000002467 Rises=F Damp=F
 DIIS: error= 6.00D-07 at cycle  11 NSaved=  11.
 NSaved=11 IEnMin=11 EnMin= -1007.21412562157     IErMin=11 ErrMin= 6.00D-07
 ErrMax= 6.00D-07  0.00D+00 EMaxC= 1.00D-01 BMatC= 3.46D-10 BMatP= 2.01D-09
 IDIUse=1 WtCom= 1.00D+00 WtEn= 0.00D+00
 Coeff-Com: -0.172D-04 0.369D-04 0.222D-03 0.430D-03 0.689D-03-0.808D-03
 Coeff-Com: -0.137D-01-0.356D-01 0.125D-01 0.326D+00 0.710D+00
 Coeff:     -0.172D-04 0.369D-04 0.222D-03 0.430D-03 0.689D-03-0.808D-03
 Coeff:     -0.137D-01-0.356D-01 0.125D-01 0.326D+00 0.710D+00
 Gap=     0.252 Goal=   None    Shift=    0.000
 RMSDP=8.06D-08 MaxDP=4.47D-06 DE=-2.47D-09 OVMax= 8.79D-06

 Cycle  12  Pass 1  IDiag  1:
 RMSU=  4.89D-08    CP:  9.36D-01  9.27D-01  9.77D-01  7.79D-01  7.72D-01
                    CP:  9.53D-01  9.44D-01  1.09D+00  1.06D+00  1.16D+00
                    CP:  9.22D-01
 E= -1007.21412562189     Delta-E=       -0.000000000319 Rises=F Damp=F
 DIIS: error= 2.03D-07 at cycle  12 NSaved=  12.
 NSaved=12 IEnMin=12 EnMin= -1007.21412562189     IErMin=12 ErrMin= 2.03D-07
 ErrMax= 2.03D-07  0.00D+00 EMaxC= 1.00D-01 BMatC= 6.32D-11 BMatP= 3.46D-10
 IDIUse=1 WtCom= 1.00D+00 WtEn= 0.00D+00
 Coeff-Com: -0.724D-05 0.145D-04 0.113D-03 0.245D-03 0.611D-03 0.283D-03
 Coeff-Com: -0.517D-02-0.200D-01-0.243D-01 0.870D-01 0.372D+00 0.589D+00
 Coeff:     -0.724D-05 0.145D-04 0.113D-03 0.245D-03 0.611D-03 0.283D-03
 Coeff:     -0.517D-02-0.200D-01-0.243D-01 0.870D-01 0.372D+00 0.589D+00
 Gap=     0.252 Goal=   None    Shift=    0.000
 RMSDP=2.53D-08 MaxDP=3.15D-06 DE=-3.19D-10 OVMax= 2.84D-06

 Cycle  13  Pass 1  IDiag  1:
 RMSU=  1.82D-08    CP:  9.36D-01  9.27D-01  9.77D-01  7.79D-01  7.72D-01
                    CP:  9.53D-01  9.44D-01  1.09D+00  1.07D+00  1.18D+00
                    CP:  9.86D-01  9.41D-01
 E= -1007.21412562198     Delta-E=       -0.000000000087 Rises=F Damp=F
 DIIS: error= 6.78D-08 at cycle  13 NSaved=  13.
 NSaved=13 IEnMin=13 EnMin= -1007.21412562198     IErMin=13 ErrMin= 6.78D-08
 ErrMax= 6.78D-08  0.00D+00 EMaxC= 1.00D-01 BMatC= 4.52D-12 BMatP= 6.32D-11
 IDIUse=1 WtCom= 1.00D+00 WtEn= 0.00D+00
 Coeff-Com:  0.445D-06-0.119D-05 0.451D-05 0.149D-04 0.971D-04 0.218D-03
 Coeff-Com:  0.233D-03-0.927D-03-0.118D-01-0.210D-01 0.255D-01 0.219D+00
 Coeff-Com:  0.789D+00
 Coeff:      0.445D-06-0.119D-05 0.451D-05 0.149D-04 0.971D-04 0.218D-03
 Coeff:      0.233D-03-0.927D-03-0.118D-01-0.210D-01 0.255D-01 0.219D+00
 Coeff:      0.789D+00
 Gap=     0.252 Goal=   None    Shift=    0.000
 RMSDP=1.01D-08 MaxDP=1.26D-06 DE=-8.73D-11 OVMax= 1.57D-06

 Cycle  14  Pass 1  IDiag  1:
 RMSU=  6.71D-09    CP:  9.36D-01  9.27D-01  9.77D-01  7.79D-01  7.72D-01
                    CP:  9.53D-01  9.44D-01  1.09D+00  1.06D+00  1.18D+00
[...]
    32  O    0.000000
    33  H    0.000000
    34  H    0.000000
 Sum of Mulliken charges =  -0.00000
 Mulliken charges with hydrogens summed into heavy atoms:
               1
     1  C    0.000000
     2  C    0.000000
     3  C    0.000000
     4  N    0.000000
     8  C    0.000000
    12  N    0.000000
    13  C    0.000000
    16  C    0.000000
    19  C    0.000000
    22  S    0.000000
    23  O    0.000000
    24  O    0.000000
    25  O    0.000000
    26  O    0.000000
    29  O   -0.000000
    32  O    0.000000
         Mulliken charges condensed to fragments:
      1      0.000000
      2      0.000000
      3     -0.000000
      4      0.000000
 Electronic spatial extent (au):  <R**2>=           7967.0011
 Charge=             -0.0000 electrons
 Dipole moment (field-independent basis, Debye):
    X=              1.6974    Y=              0.3247    Z=              1.2802  Tot=              2.1507
 Quadrupole moment (field-independent basis, Debye-Ang):
   XX=             21.9173   YY=              1.5449   ZZ=              8.6632
   XY=             20.1831   XZ=             20.9580   YZ=             17.0734
 Traceless Quadrupole moment (field-independent basis, Debye-Ang):
   XX=             11.2088   YY=             -9.1636   ZZ=             -2.0452
   XY=             20.1831   XZ=             20.9580   YZ=             17.0734
 Octapole moment (field-independent basis, Debye-Ang**2):
  XXX=            196.5292  YYY=            -64.5241  ZZZ=             18.3512  XYY=            193.1871
  XXY=            244.0737  XXZ=            222.2157  XZZ=            135.1261  YZZ=            120.7900
  YYZ=            187.5143  XYZ=            248.2652
 Hexadecapole moment (field-independent basis, Debye-Ang**3):
 XXXX=           1340.4352 YYYY=          -2239.5407 ZZZZ=           -332.0682 XXXY=           2108.7322
 XXXZ=           1943.2361 YYYX=           1327.1456 YYYZ=           1708.6748 ZZZX=            540.9937
 ZZZY=            408.0012 XXYY=           2346.5224 XXZZ=           1419.1092 YYZZ=           1410.0363
 XXYZ=           2534.0501 YYXZ=           2656.5099 ZZXY=           1655.4555
 N-N= 9.019796959892D+00 E-N=-1.988753756345D+02  KE= 7.616563482128D+01
 No NMR shielding tensors so no spin-rotation constants.
 Leave Link  601 at Sun Feb 19 14:08:13 2023, MaxMem=  6710886400 cpu:               1.8 elap:               0.1
 (Enter /data0/home/software/g16/l122.exe)
 CPIOFr:  IOpCl= 0 IRwI=-1 IRwCP=  731 ICalc=  7 LCPTot=      462135 Len1MO=     1212762 IndFrg=    10164231
 Counterpoise: doing calculation for fragment   4 using the basis set of the fragment.
 Leave Link  122 at Sun Feb 19 14:08:13 2023, MaxMem=  6710886400 cpu:               0.3 elap:               0.0
 (Enter /data0/home/software/g16/l301.exe)
 Basis read from rwf:  (5D, 7F)
 No pseudopotential information found on rwf file.
    39 basis functions,    58 primitive gaussians,    41 cartesian basis functions
     5 alpha electrons        5 beta electrons
       nuclear repulsion energy         9.0803622873 Hartrees.
 IExCor= 4336 DFT=T Ex+Corr=M062X ExCW=0 ScaHFX=  0.540000
 ScaDFX=  1.000000  1.000000  1.000000  1.000000 ScalE2=  1.000000  1.000000
 IRadAn=      5 IRanWt=     -1 IRanGd=            0 ICorTp=0 IEmpDi=131
 NAtoms=   34 NActive=    3 NUniq=    3 SFac= 1.00D+00 NAtFMM=   60 NAOKFM=F Big=F
 Integral buffers will be    131072 words long.
 Raffenetti 2 integral format.
 Two-electron integral symmetry is turned off.
 R6Disp:  Grimme-D3 Dispersion energy=       -0.0000000075 Hartrees.
 Nuclear repulsion after empirical dispersion term =        9.0803622798 Hartrees.
 No density basis found on file   718.
 Leave Link  301 at Sun Feb 19 14:08:13 2023, MaxMem=  6710886400 cpu:               1.3 elap:               0.1
 (Enter /data0/home/software/g16/l302.exe)
 NPDir=0 NMtPBC=     1 NCelOv=     1 NCel=       1 NClECP=     1 NCelD=      1
         NCelK=      1 NCelE2=     1 NClLst=     1 CellRange=     0.0.
 One-electron integrals computed using PRISM.
 NBasis=    39 RedAO= T EigKep=  3.03D-03  NBF=    39
 NBsUse=    39 1.00D-06 EigRej= -1.00D+00 NBFU=    39
 Precomputing XC quadrature grid using
 IXCGrd= 4 IRadAn=           5 IRanWt=          -1 IRanGd=           0 AccXCQ= 0.00D+00.
 Generated NRdTot=       0 NPtTot=           0 NUsed=           0 NTot=          32
 NSgBfM=    41    41    41    41    41 MxSgAt=     3 MxSgA2=     3.
 Leave Link  302 at Sun Feb 19 14:08:13 2023, MaxMem=  6710886400 cpu:               2.2 elap:               0.1
 (Enter /data0/home/software/g16/l303.exe)
 DipDrv:  MaxL=1.
 Leave Link  303 at Sun Feb 19 14:08:13 2023, MaxMem=  6710886400 cpu:               0.4 elap:               0.0
 (Enter /data0/home/software/g16/l401.exe)
 ExpMin= 8.45D-02 ExpMax= 8.59D+03 ExpMxC= 1.30D+03 IAcc=3 IRadAn=         5 AccDes= 0.00D+00
 Harris functional with IExCor= 1009 and IRadAn=       5 diagonalized for initial guess.
 HarFok:  IExCor= 1009 AccDes= 0.00D+00 IRadAn=         5 IDoV= 1 UseB2=F ITyADJ=14
 ICtDFT=  3500011 ScaDFX=  1.000000  1.000000  1.000000  1.000000
 FoFCou: FMM=F IPFlag=           0 FMFlag=      100000 FMFlg1=           0
         NFxFlg=           0 DoJE=T BraDBF=F KetDBF=T FulRan=T
         wScrn=  0.000000 ICntrl=       500 IOpCl=  0 I1Cent=   200000004 NGrid=           0
         NMat0=    1 NMatS0=      1 NMatT0=    0 NMatD0=    1 NMtDS0=    0 NMtDT0=    0
 Symmetry not used in FoFCou.
 Harris En= -76.4161652102380    
 JPrj=0 DoOrth=F DoCkMO=F.
 Leave Link  401 at Sun Feb 19 14:08:13 2023, MaxMem=  6710886400 cpu:               2.9 elap:               0.1
 (Enter /data0/home/software/g16/l502.exe)
 Keep R1 ints in memory in canonical form, NReq=21043191.
 FoFCou: FMM=F IPFlag=           0 FMFlag=           0 FMFlg1=           0
         NFxFlg=           0 DoJE=F BraDBF=F KetDBF=F FulRan=T
         wScrn=  0.000000 ICntrl=       600 IOpCl=  0 I1Cent=           0 NGrid=           0
         NMat0=    1 NMatS0=    780 NMatT0=    0 NMatD0=    1 NMtDS0=    0 NMtDT0=    0
 Symmetry not used in FoFCou.
 Two-electron integral symmetry not used.
 Closed shell SCF:
 Using DIIS extrapolation, IDIIS=  1040.
 NGot=  6710886400 LenX=  6710576033 LenY=  6710573911
 Requested convergence on RMS density matrix=1.00D-08 within 128 cycles.
 Requested convergence on MAX density matrix=1.00D-06.
 Requested convergence on             energy=1.00D-06.
 No special actions if energy rises.
 Integral accuracy reduced to 1.0D-05 until final iterations.

 Cycle   1  Pass 0  IDiag  1:
 E= -76.3466469831967    
 DIIS: error= 6.98D-02 at cycle   1 NSaved=   1.
 NSaved= 1 IEnMin= 1 EnMin= -76.3466469831967     IErMin= 1 ErrMin= 6.98D-02
 ErrMax= 6.98D-02  0.00D+00 EMaxC= 1.00D-01 BMatC= 1.20D-01 BMatP= 1.20D-01
 IDIUse=3 WtCom= 3.02D-01 WtEn= 6.98D-01
 Coeff-Com:  0.100D+01
 Coeff-En:   0.100D+01
 Coeff:      0.100D+01
 Gap=     0.325 Goal=   None    Shift=    0.000
 GapD=    0.325 DampG=1.000 DampE=0.500 DampFc=0.5000 IDamp=-1.
 Damping current iteration by 5.00D-01
 RMSDP=7.96D-03 MaxDP=1.00D-01              OVMax= 1.67D-01

 Cycle   2  Pass 0  IDiag  1:
 E= -76.3778203201015     Delta-E=       -0.031173336905 Rises=F Damp=T
 DIIS: error= 1.13D-02 at cycle   2 NSaved=   2.
 NSaved= 2 IEnMin= 2 EnMin= -76.3778203201015     IErMin= 2 ErrMin= 1.13D-02
 ErrMax= 1.13D-02  0.00D+00 EMaxC= 1.00D-01 BMatC= 4.86D-03 BMatP= 1.20D-01
 IDIUse=3 WtCom= 8.87D-01 WtEn= 1.13D-01
 Coeff-Com:  0.837D-01 0.916D+00
 Coeff-En:   0.190D+00 0.810D+00
 Coeff:      0.957D-01 0.904D+00
 Gap=     0.457 Goal=   None    Shift=    0.000
 RMSDP=9.51D-04 MaxDP=1.41D-02 DE=-3.12D-02 OVMax= 1.00D-01

 Cycle   3  Pass 0  IDiag  1:
 E= -76.4215910412220     Delta-E=       -0.043770721121 Rises=F Damp=F
 DIIS: error= 2.17D-03 at cycle   3 NSaved=   3.
 NSaved= 3 IEnMin= 3 EnMin= -76.4215910412220     IErMin= 3 ErrMin= 2.17D-03
 ErrMax= 2.17D-03  0.00D+00 EMaxC= 1.00D-01 BMatC= 9.10D-05 BMatP= 4.86D-03
 IDIUse=3 WtCom= 9.78D-01 WtEn= 2.17D-02
 Coeff-Com: -0.199D-01 0.395D-01 0.980D+00
 Coeff-En:   0.000D+00 0.000D+00 0.100D+01
 Coeff:     -0.195D-01 0.387D-01 0.981D+00
 Gap=     0.461 Goal=   None    Shift=    0.000
 RMSDP=1.15D-04 MaxDP=9.83D-04 DE=-4.38D-02 OVMax= 3.33D-03

 Cycle   4  Pass 0  IDiag  1:
 E= -76.4216687826190     Delta-E=       -0.000077741397 Rises=F Damp=F
 DIIS: error= 4.16D-04 at cycle   4 NSaved=   4.
 NSaved= 4 IEnMin= 4 EnMin= -76.4216687826190     IErMin= 4 ErrMin= 4.16D-04
 ErrMax= 4.16D-04  0.00D+00 EMaxC= 1.00D-01 BMatC= 3.30D-06 BMatP= 9.10D-05
 IDIUse=3 WtCom= 9.96D-01 WtEn= 4.16D-03
 Coeff-Com: -0.191D-02-0.226D-02 0.162D+00 0.842D+00
 Coeff-En:   0.000D+00 0.000D+00 0.000D+00 0.100D+01
 Coeff:     -0.190D-02-0.225D-02 0.162D+00 0.842D+00
 Gap=     0.462 Goal=   None    Shift=    0.000
 RMSDP=2.22D-05 MaxDP=3.56D-04 DE=-7.77D-05 OVMax= 5.40D-04

 Cycle   5  Pass 0  IDiag  1:
 E= -76.4216708277560     Delta-E=       -0.000002045137 Rises=F Damp=F
 DIIS: error= 8.95D-05 at cycle   5 NSaved=   5.
 NSaved= 5 IEnMin= 5 EnMin= -76.4216708277560     IErMin= 5 ErrMin= 8.95D-05
 ErrMax= 8.95D-05  0.00D+00 EMaxC= 1.00D-01 BMatC= 8.33D-08 BMatP= 3.30D-06
 IDIUse=1 WtCom= 1.00D+00 WtEn= 0.00D+00
 Coeff-Com:  0.118D-02-0.180D-02-0.369D-01-0.651D-01 0.110D+01
 Coeff:      0.118D-02-0.180D-02-0.369D-01-0.651D-01 0.110D+01
 Gap=     0.462 Goal=   None    Shift=    0.000
 RMSDP=9.04D-06 MaxDP=1.02D-04 DE=-2.05D-06 OVMax= 2.05D-04

 Initial convergence to 1.0D-05 achieved.  Increase integral accuracy.
 Cycle   6  Pass 1  IDiag  1:
 E= -76.4216812312355     Delta-E=       -0.000010403479 Rises=F Damp=F
 DIIS: error= 2.09D-05 at cycle   1 NSaved=   1.
 NSaved= 1 IEnMin= 1 EnMin= -76.4216812312355     IErMin= 1 ErrMin= 2.09D-05
 ErrMax= 2.09D-05  0.00D+00 EMaxC= 1.00D-01 BMatC= 2.44D-08 BMatP= 2.44D-08
 IDIUse=1 WtCom= 1.00D+00 WtEn= 0.00D+00
 Coeff-Com:  0.100D+01
 Coeff:      0.100D+01
 Gap=     0.462 Goal=   None    Shift=    0.000
 RMSDP=9.04D-06 MaxDP=1.02D-04 DE=-1.04D-05 OVMax= 4.41D-05

 Cycle   7  Pass 1  IDiag  1:
 E= -76.4216812506954     Delta-E=       -0.000000019460 Rises=F Damp=F
 DIIS: error= 5.56D-06 at cycle   2 NSaved=   2.
 NSaved= 2 IEnMin= 2 EnMin= -76.4216812506954     IErMin= 2 ErrMin= 5.56D-06
 ErrMax= 5.56D-06  0.00D+00 EMaxC= 1.00D-01 BMatC= 4.98D-10 BMatP= 2.44D-08
 IDIUse=1 WtCom= 1.00D+00 WtEn= 0.00D+00
 Coeff-Com: -0.436D-01 0.104D+01
 Coeff:     -0.436D-01 0.104D+01
 Gap=     0.462 Goal=   None    Shift=    0.000
 RMSDP=6.26D-07 MaxDP=6.50D-06 DE=-1.95D-08 OVMax= 1.39D-05

 Cycle   8  Pass 1  IDiag  1:
 E= -76.4216812508932     Delta-E=       -0.000000000198 Rises=F Damp=F
 DIIS: error= 4.20D-06 at cycle   3 NSaved=   3.
 NSaved= 3 IEnMin= 3 EnMin= -76.4216812508932     IErMin= 3 ErrMin= 4.20D-06
 ErrMax= 4.20D-06  0.00D+00 EMaxC= 1.00D-01 BMatC= 4.43D-10 BMatP= 4.98D-10
 IDIUse=1 WtCom= 1.00D+00 WtEn= 0.00D+00
 Coeff-Com: -0.417D-01 0.527D+00 0.515D+00
 Coeff:     -0.417D-01 0.527D+00 0.515D+00
 Gap=     0.462 Goal=   None    Shift=    0.000
 RMSDP=2.49D-07 MaxDP=3.59D-06 DE=-1.98D-10 OVMax= 5.49D-06

 Cycle   9  Pass 1  IDiag  1:
 E= -76.4216812511770     Delta-E=       -0.000000000284 Rises=F Damp=F
 DIIS: error= 6.92D-07 at cycle   4 NSaved=   4.
 NSaved= 4 IEnMin= 4 EnMin= -76.4216812511770     IErMin= 4 ErrMin= 6.92D-07
 ErrMax= 6.92D-07  0.00D+00 EMaxC= 1.00D-01 BMatC= 5.96D-12 BMatP= 4.43D-10
 IDIUse=1 WtCom= 1.00D+00 WtEn= 0.00D+00
 Coeff-Com: -0.131D-03-0.302D-01 0.638D-01 0.967D+00
 Coeff:     -0.131D-03-0.302D-01 0.638D-01 0.967D+00
 Gap=     0.462 Goal=   None    Shift=    0.000
 RMSDP=6.14D-08 MaxDP=4.19D-07 DE=-2.84D-10 OVMax= 1.32D-06

 Cycle  10  Pass 1  IDiag  1:
 E= -76.4216812511834     Delta-E=       -0.000000000006 Rises=F Damp=F
 DIIS: error= 6.72D-08 at cycle   5 NSaved=   5.
 NSaved= 5 IEnMin= 5 EnMin= -76.4216812511834     IErMin= 5 ErrMin= 6.72D-08
 ErrMax= 6.72D-08  0.00D+00 EMaxC= 1.00D-01 BMatC= 1.65D-13 BMatP= 5.96D-12
 IDIUse=1 WtCom= 1.00D+00 WtEn= 0.00D+00
 Coeff-Com:  0.156D-02-0.239D-01-0.179D-01 0.998D-01 0.940D+00
 Coeff:      0.156D-02-0.239D-01-0.179D-01 0.998D-01 0.940D+00
 Gap=     0.462 Goal=   None    Shift=    0.000
 RMSDP=1.96D-08 MaxDP=1.32D-07 DE=-6.38D-12 OVMax= 3.13D-07

 Cycle  11  Pass 1  IDiag  1:
 E= -76.4216812511838     Delta-E=       -0.000000000000 Rises=F Damp=F
 DIIS: error= 1.14D-08 at cycle   6 NSaved=   6.
 NSaved= 6 IEnMin= 6 EnMin= -76.4216812511838     IErMin= 6 ErrMin= 1.14D-08
 ErrMax= 1.14D-08  0.00D+00 EMaxC= 1.00D-01 BMatC= 6.61D-15 BMatP= 1.65D-13
 IDIUse=1 WtCom= 1.00D+00 WtEn= 0.00D+00
 Coeff-Com:  0.783D-04 0.347D-03-0.470D-02-0.446D-01-0.135D-01 0.106D+01
 Coeff:      0.783D-04 0.347D-03-0.470D-02-0.446D-01-0.135D-01 0.106D+01
 Gap=     0.462 Goal=   None    Shift=    0.000
 RMSDP=4.63D-09 MaxDP=3.22D-08 DE=-4.55D-13 OVMax= 8.15D-08

 SCF Done:  E(RM062X) =  -76.4216812512     A.U. after   11 cycles
            NFock= 11  Conv=0.46D-08     -V/T= 2.0031
 KE= 7.618783959903D+01 PE=-1.990068176501D+02 EE= 3.731693452003D+01
 Leave Link  502 at Sun Feb 19 14:08:14 2023, MaxMem=  6710886400 cpu:               7.5 elap:               0.3
 (Enter /data0/home/software/g16/l601.exe)
 Copying SCF densities to generalized density rwf, IOpCl= 0 IROHF=0.

 **********************************************************************

            Population analysis using the SCF density.

 **********************************************************************

 Alpha  occ. eigenvalues --  -19.62691  -1.13303  -0.60431  -0.47684  -0.39989
 Alpha virt. eigenvalues --    0.06194   0.13286   0.17423   0.17944   0.18902
 Alpha virt. eigenvalues --    0.23405   0.50824   0.53319   0.98128   1.00279
 Alpha virt. eigenvalues --    1.06007   1.17593   1.20100   1.31949   1.34060
 Alpha virt. eigenvalues --    1.70346   1.74221   1.75251   2.07303   2.09468
 Alpha virt. eigenvalues --    2.36283   2.39551   2.54805   2.87642   3.01036
 Alpha virt. eigenvalues --    5.05618   5.48551   5.90421   6.78479   6.80064
 Alpha virt. eigenvalues --    6.87342   6.91591   7.09607  49.95419
          Condensed to atoms (all electrons):
              32         33         34
    32  O    7.919085   0.318602   0.316027
    33  H    0.318602   0.429443  -0.023759
    34  H    0.316027  -0.023759   0.429732
 Mulliken charges:
               1
     1  C    0.000000
     2  C    0.000000
     3  C    0.000000
     4  N    0.000000
     5  H    0.000000
     6  H    0.000000
     7  H    0.000000
     8  C    0.000000
     9  H    0.000000
    10  H    0.000000
    11  H    0.000000
    12  N    0.000000
    13  C    0.000000
    14  H    0.000000
    15  H    0.000000
    16  C    0.000000
    17  H    0.000000
    18  H    0.000000
    19  C    0.000000
    20  H    0.000000
    21  H    0.000000
    22  S    0.000000
    23  O    0.000000
    24  O    0.000000
    25  O    0.000000
    26  O    0.000000
    27  H    0.000000
    28  H    0.000000
    29  O    0.000000
    30  H    0.000000
    31  H    0.000000
    32  O   -0.553714
    33  H    0.275714
    34  H    0.278000
 Sum of Mulliken charges =   0.00000
 Mulliken charges with hydrogens summed into heavy atoms:
               1
     1  C    0.000000
     2  C    0.000000
     3  C    0.000000
     4  N    0.000000
     8  C    0.000000
    12  N    0.000000
    13  C    0.000000
    16  C    0.000000
    19  C    0.000000
    22  S    0.000000
    23  O    0.000000
    24  O    0.000000
    25  O    0.000000
    26  O    0.000000
    29  O    0.000000
    32  O    0.000000
         Mulliken charges condensed to fragments:
      1      0.000000
      2      0.000000
      3      0.000000
      4      0.000000
 Electronic spatial extent (au):  <R**2>=           8305.6069
 Charge=             -0.0000 electrons
 Dipole moment (field-independent basis, Debye):
    X=              0.8455    Y=              1.1651    Z=             -1.5784  Tot=              2.1363
 Quadrupole moment (field-independent basis, Debye-Ang):
   XX=              4.5109   YY=             15.5646   ZZ=            -37.0803
   XY=             16.8929   XZ=             -1.4306   YZ=             -2.4150
 Traceless Quadrupole moment (field-independent basis, Debye-Ang):
   XX=             10.1792   YY=             21.2328   ZZ=            -31.4120
   XY=             16.8929   XZ=             -1.4306   YZ=             -2.4150
 Octapole moment (field-independent basis, Debye-Ang**2):
  XXX=            -21.8287  YYY=            132.1633  ZZZ=           -640.9169  XYY=            201.1212
  XXY=            110.7954  XXZ=            -16.7969  XZZ=           -150.0093  YZZ=           -216.4056
  YYZ=             30.4164  XYZ=             81.2070
 Hexadecapole moment (field-independent basis, Debye-Ang**3):
 XXXX=           -790.2978 YYYY=            580.9747 ZZZZ=          -9708.6968 XXXY=            315.2088
 XXXZ=           -606.0013 YYYX=           1909.9840 YYYZ=            207.9020 ZZZX=          -3238.9193
 ZZZY=          -4621.3107 XXYY=           1407.0869 XXZZ=          -1035.9171 YYZZ=          -1433.6639
 XXYZ=            561.1886 YYXZ=           1233.8662 ZZXY=           -410.0888
 N-N= 9.080362279813D+00 E-N=-1.990068175339D+02  KE= 7.618783959903D+01
 No NMR shielding tensors so no spin-rotation constants.
 Leave Link  601 at Sun Feb 19 14:08:14 2023, MaxMem=  6710886400 cpu:               1.8 elap:               0.1
 (Enter /data0/home/software/g16/l122.exe)
 CPIOFr:  IOpCl= 0 IRwI=-1 IRwCP=  731 ICalc=  8 LCPTot=      462135 Len1MO=     1212762 IndFrg=    11376993
 Restoring MOs from calculation   1 to rwf.
 CPIOFr:  IOpCl= 0 IRwI=-2 IRwCP=  731 ICalc=  0 LCPTot=      462135 Len1MO=     1212762 IndFrg=     1674897
 Counterpoise corrected energy =   -1236.535703705157
                   BSSE energy =       0.004484971098
              sum of fragments =   -1236.476979566540
           complexation energy =     -39.66 kcal/mole (raw)
           complexation energy =     -36.85 kcal/mole (corrected)
 Leave Link  122 at Sun Feb 19 14:08:14 2023, MaxMem=  6710886400 cpu:               0.5 elap:               0.0
 (Enter /data0/home/software/g16/l9999.exe)
 1\1\GINC-LOCALHOST\SP\RM062X\6-311+G(2d,p)\C7H18N2O6S1\WUHANYU\19-Feb-
 2023\0\\#p M062X/6-311+G(2d,p) nosymm em=GD3 counterpoise=4\\Title Car
 d Required\\0,1\C,0,10.996203,7.954371,11.138083\C,0,11.599877,9.16004
 1,11.478352\C,0,9.373827,9.403292,11.718093\N,0,9.623953,8.12302,11.30
 453\H,0,11.435224,7.041895,10.761688\H,0,12.634707,9.439103,11.448111\
 H,0,8.384206,9.847057,11.869127\C,0,8.600223,7.12648,11.054029\H,0,8.9
 94181,6.287131,10.445456\H,0,8.192975,6.728727,11.997619\H,0,7.751843,
 7.576215,10.468959\N,0,10.581225,10.041981,11.846007\C,0,10.757954,11.
 441316,12.238075\H,0,11.340451,11.4653,13.188364\H,0,9.751752,11.88436
 5,12.456632\C,0,11.475371,12.278767,11.156927\H,0,12.09408,13.04899,11
 .661704\H,0,12.20032,11.644459,10.595085\C,0,10.520343,12.96047,10.182
 997\H,0,11.081507,13.59771,9.474696\H,0,9.824844,13.639694,10.705462\S
 ,0,9.570444,11.743016,9.247762\O,0,8.970711,12.411181,8.084441\O,0,10.
 577371,10.706526,8.878586\O,0,8.594315,11.231815,10.250245\O,0,6.67216
 4,9.023042,7.140364\H,0,6.180332,8.621413,6.433125\H,0,7.170178,9.7723
 95,6.714376\O,0,8.201705,10.867328,5.945323\H,0,8.35715,11.58384,6.609
 16\H,0,9.007458,10.342656,6.012781\O,0,6.622647,9.289502,10.090189\H,0
 ,6.499619,9.183694,9.142028\H,0,7.225727,10.056383,10.15051\\Version=E
 S64L-G16RevA.03\HF=-76.4216813\RMSD=4.630e-09\Dipole=2.5906434,-1.3502
 006,2.9699873\Quadrupole=36.1584052,-94.2976763,58.1392711,28.793945,1
 05.4993265,38.7349005\PG=C01 [X(C7H18N2O6S1)]\\@


 ERWIN WITH HIS PSI CAN DO
 CALCULATIONS QUITE A FEW.
 BUT ONE THING HAS NOT BEEN SEEN
 JUST WHAT DOES PSI REALLY MEAN.
 -- WALTER HUCKEL, TRANS. BY FELIX BLOCH
 Job cpu time:       0 days  3 hours 27 minutes 18.5 seconds.
 Elapsed time:       0 days  0 hours  8 minutes 41.7 seconds.
 File lengths (MBytes):  RWF=    273 Int=      0 D2E=      0 Chk=    104 Scr=      1
 Normal termination of Gaussian 16 at Sun Feb 19 14:08:14 2023.
