 Entering Gaussian System, Link 0=g16
 Initial command:
 /data0/home/software/g16/l1.exe "/data0/home/software/g16/scratch/Gau-355624.inp" -scrdir="/data0/home/software/g16/scratch/"
 Default is to use a total of  22 processors:
                               22 via shared-memory
                                1 via Linda
 Entering Link 1 = /data0/home/software/g16/l1.exe PID=    355625.
  
 Copyright (c) 1988,1990,1992,1993,1995,1998,2003,2009,2016,
            Gaussian, Inc.  All Rights Reserved.
  
 This is part of the Gaussian(R) 16 program.  It is based on
 the Gaussian(R) 09 system (copyright 2009, Gaussian, Inc.),
 the Gaussian(R) 03 system (copyright 2003, Gaussian, Inc.),
 the Gaussian(R) 98 system (copyright 1998, Gaussian, Inc.),
 the Gaussian(R) 94 system (copyright 1995, Gaussian, Inc.),
 the Gaussian 92(TM) system (copyright 1992, Gaussian, Inc.),
 the Gaussian 90(TM) system (copyright 1990, Gaussian, Inc.),
 the Gaussian 88(TM) system (copyright 1988, Gaussian, Inc.),
 the Gaussian 86(TM) system (copyright 1986, Carnegie Mellon
 University), and the Gaussian 82(TM) system (copyright 1983,
 Carnegie Mellon University). Gaussian is a federally registered
 trademark of Gaussian, Inc.
  
 This software contains proprietary and confidential information,
 including trade secrets, belonging to Gaussian, Inc.
  
 This software is provided under written license and may be
 used, copied, transmitted, or stored only in accord with that
 written license.
  
 The following legend is applicable only to US Government
 contracts under FAR:
  
                    RESTRICTED RIGHTS LEGEND
  
 Use, reproduction and disclosure by the US Government is
 subject to restrictions as set forth in subparagraphs (a)
 and (c) of the Commercial Computer Software - Restricted
 Rights clause in FAR 52.227-19.
  
 Gaussian, Inc.
 340 Quinnipiac St., Bldg. 40, Wallingford CT 06492
  
  
 ---------------------------------------------------------------
 Warning -- This program may not be used in any manner that
 competes with the business of Gaussian, Inc. or will provide
 assistance to any competitor of Gaussian, Inc.  The licensee
 of this program is prohibited from giving any competitor of
 Gaussian, Inc. access to this program.  By using this program,
 the user acknowledges that Gaussian, Inc. is engaged in the
 business of creating and licensing software in the field of
 computational chemistry and represents and warrants to the
 licensee that it is not a competitor of Gaussian, Inc. and that
 it will not use this program in any manner prohibited above.
 ---------------------------------------------------------------
  

 Cite this work as:
 Gaussian 16, Revision A.03,
 M. J. Frisch, G. W. Trucks, H. B. Schlegel, G. E. Scuseria, 
 M. A. Robb, J. R. Cheeseman, G. Scalmani, V. Barone, 
 G. A. Petersson, H. Nakatsuji, X. Li, M. Caricato, A. V. Marenich, 
 J. Bloino, B. G. Janesko, R. Gomperts, B. Mennucci, H. P. Hratchian, 
 J. V. Ortiz, A. F. Izmaylov, J. L. Sonnenberg, D. Williams-Young, 
 F. Ding, F. Lipparini, F. Egidi, J. Goings, B. Peng, A. Petrone, 
 T. Henderson, D. Ranasinghe, V. G. Zakrzewski, J. Gao, N. Rega, 
 G. Zheng, W. Liang, M. Hada, M. Ehara, K. Toyota, R. Fukuda, 
 J. Hasegawa, M. Ishida, T. Nakajima, Y. Honda, O. Kitao, H. Nakai, 
 T. Vreven, K. Throssell, J. A. Montgomery, Jr., J. E. Peralta, 
 F. Ogliaro, M. J. Bearpark, J. J. Heyd, E. N. Brothers, K. N. Kudin, 
 V. N. Staroverov, T. A. Keith, R. Kobayashi, J. Normand, 
 K. Raghavachari, A. P. Rendell, J. C. Burant, S. S. Iyengar, 
 J. Tomasi, M. Cossi, J. M. Millam, M. Klene, C. Adamo, R. Cammi, 
 J. W. Ochterski, R. L. Martin, K. Morokuma, O. Farkas, 
 J. B. Foresman, and D. J. Fox, Gaussian, Inc., Wallingford CT, 2016.
 
 ******************************************
 Gaussian 16:  ES64L-G16RevA.03 25-Dec-2016
                20-Feb-2023 
 ******************************************
 %nproc=24
 Will use up to   24 processors via shared memory.
 %mem=50GB
 ---------------------------------------------------
 #p M062X/6-311+G(2d,p) nosymm em=GD3 counterpoise=4
 ---------------------------------------------------
 1/38=1,62=4,172=1/1;
 2/12=2,15=1,17=6,18=5,40=1/2;
 1/38=1,53=2,62=4,63=1/22;
 3/5=4,6=6,7=112,11=2,25=1,30=1,74=-55,124=31/1,2,3;
 4//1;
 5/5=2,38=5/2;
 6/7=2,8=2,9=2,10=2,28=1/1;
 1/53=2,62=4,63=1/22;
 3/5=7,6=11,7=112,11=2,25=1,30=1,74=-55,82=7,124=31/1,2,3;
 4//1;
 5/5=2,38=5/2;
 6/7=2,8=2,9=2,10=2,28=1/1;
 1/53=2,62=4,63=1/22(-4);
 99/5=1,9=1/99;
 Leave Link    1 at Mon Feb 20 00:58:36 2023, MaxMem=  6710886400 cpu:               0.7 elap:               0.0
 (Enter /data0/home/software/g16/l101.exe)
 -------------------
 Title Card Required
 -------------------
 Symbolic Z-matrix:
 Charge =  0 Multiplicity = 1 in supermolecule
 Charge =  0 Multiplicity = 1 in fragment      1.
 Charge =  0 Multiplicity = 1 in fragment      2.
 Charge =  0 Multiplicity = 1 in fragment      3.
 Charge =  0 Multiplicity = 1 in fragment      4.
 C                     11.57097   10.90281   11.9342    
 H                     12.3415   11.17179   11.17734    
 H                     11.92716   11.20464   12.92671    
 H                     11.49349   9.79582   11.91455    
 C                     9.21853   11.11322   12.5921    
 H                     8.22392   11.50927   12.33082    
 H                     9.13549   10.00099   12.60292    
 H                     9.47371   11.43974   13.61038    
 C                     10.42945   13.03368   11.66012    
 H                     9.47696   13.56666   11.52173    
 H                     10.8627   13.34673   12.62109    
 H                     11.1227   13.37309   10.84903    
 C                     9.83952   11.09233   10.20614    
 H                     9.41815   10.05645   10.27544    
 H                     10.77585   10.99456   9.5959     
 C                     8.86158   12.02216   9.48275    
 H                     9.36087   12.98086   9.21992    
 H                     7.9879    12.26921   10.10953    
 C                     8.39619   11.34632   8.18829    
 H                     7.91957   12.0779   7.51107    
 H                     7.63441   10.56898   8.39366    
 N                     10.25184   11.5467   11.59501    
 C                     9.60198   10.72874   7.47094    
 O                     10.55222   11.47424   7.17342    
 O                     9.57346   9.49112   7.2874     
 O                     8.1608    8.12453   9.11298    
 H                     8.65983   8.62072   8.41019    
 H                     7.97976   7.27756   8.71882    
 O                     9.88988   8.12194   11.28444    
 H                     10.73149   8.08876   10.81738    
 H                     9.22744   7.99733   10.58101    
 O                     12.00119   12.99375   9.0036     
 H                     12.85871   12.61665   8.79194    
 H                     11.42043   12.6179   8.30716    
 
 ITRead=  0  0  0  0  0  0  0  0  0  0  0  0  0  0  0  0  0  0  0  0
 ITRead=  0  0  0  0  0  0  0  0  0  0  0  0  0  0
 MicOpt= -1 -1 -1 -1 -1 -1 -1 -1 -1 -1 -1 -1 -1 -1 -1 -1 -1 -1 -1 -1
 MicOpt= -1 -1 -1 -1 -1 -1 -1 -1 -1 -1 -1 -1 -1 -1
 NAtoms=     34 NQM=       34 NQMF=       0 NMMI=      0 NMMIF=      0
                NMic=       0 NMicF=      0.
                    Isotopes and Nuclear Properties:
 (Nuclear quadrupole moments (NQMom) in fm**2, nuclear magnetic moments (NMagM)
  in nuclear magnetons)

  Atom         1           2           3           4           5           6           7           8           9          10
 IAtWgt=          12           1           1           1          12           1           1           1          12           1
 AtmWgt=  12.0000000   1.0078250   1.0078250   1.0078250  12.0000000   1.0078250   1.0078250   1.0078250  12.0000000   1.0078250
 NucSpn=           0           1           1           1           0           1           1           1           0           1
 AtZEff=  -0.0000000  -0.0000000  -0.0000000  -0.0000000  -0.0000000  -0.0000000  -0.0000000  -0.0000000  -0.0000000  -0.0000000
 NQMom=    0.0000000   0.0000000   0.0000000   0.0000000   0.0000000   0.0000000   0.0000000   0.0000000   0.0000000   0.0000000
 NMagM=    0.0000000   2.7928460   2.7928460   2.7928460   0.0000000   2.7928460   2.7928460   2.7928460   0.0000000   2.7928460
 AtZNuc=   6.0000000   1.0000000   1.0000000   1.0000000   6.0000000   1.0000000   1.0000000   1.0000000   6.0000000   1.0000000

  Atom        11          12          13          14          15          16          17          18          19          20
 IAtWgt=           1           1          12           1           1          12           1           1          12           1
 AtmWgt=   1.0078250   1.0078250  12.0000000   1.0078250   1.0078250  12.0000000   1.0078250   1.0078250  12.0000000   1.0078250
 NucSpn=           1           1           0           1           1           0           1           1           0           1
 AtZEff=  -0.0000000  -0.0000000  -0.0000000  -0.0000000  -0.0000000  -0.0000000  -0.0000000  -0.0000000  -0.0000000  -0.0000000
 NQMom=    0.0000000   0.0000000   0.0000000   0.0000000   0.0000000   0.0000000   0.0000000   0.0000000   0.0000000   0.0000000
 NMagM=    2.7928460   2.7928460   0.0000000   2.7928460   2.7928460   0.0000000   2.7928460   2.7928460   0.0000000   2.7928460
 AtZNuc=   1.0000000   1.0000000   6.0000000   1.0000000   1.0000000   6.0000000   1.0000000   1.0000000   6.0000000   1.0000000

  Atom        21          22          23          24          25          26          27          28          29          30
 IAtWgt=           1          14          12          16          16          16           1           1          16           1
 AtmWgt=   1.0078250  14.0030740  12.0000000  15.9949146  15.9949146  15.9949146   1.0078250   1.0078250  15.9949146   1.0078250
 NucSpn=           1           2           0           0           0           0           1           1           0           1
 AtZEff=  -0.0000000  -0.0000000  -0.0000000  -0.0000000  -0.0000000  -0.0000000  -0.0000000  -0.0000000  -0.0000000  -0.0000000
 NQMom=    0.0000000   2.0440000   0.0000000   0.0000000   0.0000000   0.0000000   0.0000000   0.0000000   0.0000000   0.0000000
 NMagM=    2.7928460   0.4037610   0.0000000   0.0000000   0.0000000   0.0000000   2.7928460   2.7928460   0.0000000   2.7928460
 AtZNuc=   1.0000000   7.0000000   6.0000000   8.0000000   8.0000000   8.0000000   1.0000000   1.0000000   8.0000000   1.0000000

  Atom        31          32          33          34
 IAtWgt=           1          16           1           1
 AtmWgt=   1.0078250  15.9949146   1.0078250   1.0078250
 NucSpn=           1           0           1           1
 AtZEff=  -0.0000000  -0.0000000  -0.0000000  -0.0000000
 NQMom=    0.0000000   0.0000000   0.0000000   0.0000000
 NMagM=    2.7928460   0.0000000   2.7928460   2.7928460
 AtZNuc=   1.0000000   8.0000000   1.0000000   1.0000000
 Leave Link  101 at Mon Feb 20 00:58:36 2023, MaxMem=  6710886400 cpu:               2.3 elap:               0.1
 (Enter /data0/home/software/g16/l202.exe)
                          Input orientation:                          
 ---------------------------------------------------------------------
 Center     Atomic      Atomic             Coordinates (Angstroms)
 Number     Number       Type             X           Y           Z
 ---------------------------------------------------------------------
      1          6           0       11.570971   10.902812   11.934201
      2          1           0       12.341504   11.171792   11.177340
      3          1           0       11.927156   11.204639   12.926712
      4          1           0       11.493492    9.795823   11.914552
      5          6           0        9.218533   11.113216   12.592101
      6          1           0        8.223918   11.509268   12.330819
      7          1           0        9.135490   10.000989   12.602921
      8          1           0        9.473712   11.439739   13.610380
      9          6           0       10.429446   13.033683   11.660123
     10          1           0        9.476955   13.566655   11.521734
     11          1           0       10.862696   13.346728   12.621094
     12          1           0       11.122705   13.373090   10.849025
     13          6           0        9.839524   11.092332   10.206138
     14          1           0        9.418151   10.056452   10.275437
     15          1           0       10.775855   10.994555    9.595897
     16          6           0        8.861580   12.022159    9.482750
     17          1           0        9.360869   12.980861    9.219924
     18          1           0        7.987904   12.269212   10.109530
     19          6           0        8.396190   11.346324    8.188291
     20          1           0        7.919568   12.077897    7.511075
     21          1           0        7.634408   10.568984    8.393658
     22          7           0       10.251838   11.546696   11.595012
     23          6           0        9.601984   10.728739    7.470939
     24          8           0       10.552222   11.474242    7.173417
     25          8           0        9.573459    9.491118    7.287399
     26          8           0        8.160797    8.124526    9.112979
     27          1           0        8.659827    8.620721    8.410191
     28          1           0        7.979763    7.277555    8.718823
     29          8           0        9.889878    8.121935   11.284442
     30          1           0       10.731491    8.088760   10.817381
     31          1           0        9.227438    7.997330   10.581012
     32          8           0       12.001186   12.993747    9.003599
     33          1           0       12.858712   12.616645    8.791935
     34          1           0       11.420435   12.617903    8.307164
 ---------------------------------------------------------------------
                    Distance matrix (angstroms):
                    1          2          3          4          5
     1  C    0.000000
     2  H    1.113063   0.000000
     3  H    1.096834   1.798073   0.000000
     4  H    1.109871   1.776484   1.788098   0.000000
     5  C    2.451748   3.428983   2.730744   2.714781   0.000000
     6  H    3.424596   4.289396   3.763225   3.714739   1.101991
     7  H    2.681798   3.698863   3.057289   2.464978   1.115375
     8  H    2.737948   3.770373   2.557745   3.107701   1.099375
     9  C    2.432860   2.712136   2.681937   3.417699   2.454198
    10  H    3.413370   3.749616   3.681924   4.294171   2.689206
    11  H    2.635565   3.000274   2.411436   3.675055   2.773570
    12  H    2.735109   2.537513   3.109036   3.750956   3.430920
    13  C    2.453575   2.685042   3.431085   2.708362   2.465540
    14  H    2.846482   3.256287   3.826578   2.657379   2.554120
    15  H    2.471496   2.232405   3.530433   2.707050   3.378842
    16  C    3.821433   3.962907   4.682624   4.218672   3.259088
    17  H    4.070643   3.998549   4.845727   4.685463   3.857452
    18  H    4.246745   4.615017   4.958582   4.654557   3.002321
    19  C    4.930292   4.952815   5.911043   5.087470   4.485993
    20  H    5.854709   5.815156   6.793561   6.113216   5.332424
    21  H    5.305037   5.501728   6.275374   5.280815   4.520239
    22  N    1.506568   2.163725   2.167284   2.170108   1.499937
    23  C    4.881385   4.630192   5.949652   4.918723   5.149870
    24  O    4.901984   4.395953   5.921447   5.116780   5.592066
    25  O    5.251257   5.061460   6.346487   5.018956   5.558510
    26  O    5.225653   5.570074   6.181999   4.663572   4.706948
    27  H    5.108948   5.264962   6.144187   4.657367   4.900312
    28  H    6.031411   6.343041   6.979271   5.375932   5.590092
    29  O    3.313840   3.914533   4.043590   2.402190   3.332932
    30  H    3.141799   3.496684   3.948113   2.167601   3.819163
    31  H    3.970528   4.486672   4.803917   3.185578   3.708545
    32  O    3.625675   2.856656   4.312448   4.354092   4.914967
    33  H    3.803858   2.836417   4.467431   4.423980   5.472884
    34  H    4.014922   3.343279   4.857397   4.580690   5.047092
                    6          7          8          9         10
     6  H    0.000000
     7  H    1.783230   0.000000
     8  H    1.789999   1.788678   0.000000
     9  C    2.763698   3.429347   2.693991   0.000000
    10  H    2.541173   3.741596   2.980977   1.100204   0.000000
    11  H    3.228571   3.765307   2.558236   1.099622   1.782481
    12  H    3.751335   4.289084   3.752613   1.119681   1.788434
    13  C    2.701534   2.726034   3.441420   2.496182   2.825690
    14  H    2.785940   2.345241   3.610875   3.435692   3.725351
    15  H    3.775859   3.566534   4.243800   2.922169   3.465788
    16  C    2.963303   3.727683   4.213223   2.867462   2.630895
    17  H    3.624350   4.513879   4.654449   2.664436   2.378016
    18  H    2.359522   3.560729   3.892506   2.991635   2.427952
    19  C    4.149309   4.673912   5.528908   4.362904   4.148465
    20  H    4.862705   5.631954   6.326463   4.942430   4.552718
    21  H    4.090586   4.504860   5.599593   4.955479   4.708064
    22  N    2.157608   2.156693   2.163014   1.498971   2.164728
    23  C    5.111431   5.204275   6.181805   4.852497   4.947559
    24  O    5.658712   5.801475   6.526781   4.751575   4.943911
    25  O    5.597345   5.357850   6.617187   5.692380   5.877832
    26  O    4.670648   4.080543   5.739425   5.977837   6.095174
    27  H    4.889279   4.439637   5.970866   5.759153   5.900141
    28  H    5.568979   4.882521   6.594163   6.912684   7.046323
    29  O    3.917187   2.416264   4.073206   4.955556   5.465509
    30  H    4.503142   3.064636   4.540034   5.025307   5.663683
    31  H    4.050011   2.848020   4.592156   5.289060   5.653724
    32  O    5.248031   5.488527   5.479553   3.086921   3.611228
    33  H    5.935596   5.935289   6.005060   3.781766   4.448663
    34  H    5.257052   5.524739   5.770780   3.520975   3.874365
                   11         12         13         14         15
    11  H    0.000000
    12  H    1.791236   0.000000
    13  C    3.458496   2.694757   0.000000
    14  H    4.291239   3.772876   1.120449   0.000000
    15  H    3.833024   2.710731   1.121905   1.784705   0.000000
    16  C    3.950715   2.967222   1.531092   2.191376   2.175597
    17  H    3.735947   2.431436   2.183637   3.109591   2.467580
    18  H    3.966538   3.404758   2.196105   2.639969   3.108254
    19  C    5.452982   4.315225   2.493879   2.657885   2.787096
    20  H    6.031934   4.804115   3.452671   3.738140   3.698444
    21  H    6.000743   5.104905   2.901984   2.643013   3.390454
    22  N    2.160117   2.156530   1.518361   2.158041   2.139139
    23  C    5.913320   4.551555   2.769465   2.889805   2.442146
    24  O    5.768863   4.176263   3.138661   3.594270   2.479621
    25  O    6.706427   5.491361   3.339718   3.045011   3.005868
    26  O    6.846789   6.271697   3.580641   2.581586   3.912647
    27  H    6.702199   5.882065   3.275053   2.472958   3.393901
    28  H    7.770063   7.181322   4.497037   3.494893   4.733231
    29  O    5.480098   5.411477   3.160464   2.232257   3.447910
    30  H    5.560290   5.298886   3.192283   2.427010   3.152402
    31  H    5.954163   5.706370   3.177140   2.090390   3.514456
    32  O    3.808809   2.078756   3.119978   4.113070   2.418475
    33  H    4.379447   2.795988   3.665924   4.537932   2.759678
    34  H    4.410471   2.668334   2.903920   3.800562   2.170616
                   16         17         18         19         20
    16  C    0.000000
    17  H    1.112419   0.000000
    18  H    1.103267   1.784062   0.000000
    19  C    1.532633   2.160228   2.170156   0.000000
    20  H    2.185863   2.410987   2.606384   1.104984   0.000000
    21  H    2.191755   3.079048   2.441301   1.107585   1.771182
    22  N    2.573040   2.914052   2.802514   3.884498   4.732885
    23  C    2.503701   2.861667   3.455499   1.532953   2.156933
    24  O    2.914018   2.806673   3.978500   2.386379   2.721999
    25  O    3.425275   3.994766   4.265702   2.374733   3.078443
    26  O    3.977357   5.003559   4.266313   3.360125   4.272403
    27  H    3.572236   4.489760   4.080529   2.747300   3.648076
    28  H    4.885944   5.889504   5.181773   4.124289   4.950309
    29  O    4.417605   5.305775   4.711457   4.713167   5.811201
    30  H    4.555155   5.325704   5.050198   4.793482   5.895064
    31  H    4.187992   5.167780   4.472999   4.199029   5.271249
    32  O    3.321249   2.649195   4.225455   4.046570   4.441398
    33  H    4.099720   3.542701   5.057819   4.678911   5.130886
    34  H    2.878307   2.281815   3.892606   3.282850   3.630624
                   21         22         23         24         25
    21  H    0.000000
    22  N    4.249180   0.000000
    23  C    2.179057   4.254332   0.000000
    24  O    3.289699   4.432379   1.243884   0.000000
    25  O    2.479017   4.820905   1.251482   2.214441   0.000000
    26  O    2.601900   4.716374   3.399300   4.549880   2.682523
    27  H    2.201701   4.608570   2.492708   3.640515   1.689076
    28  H    3.325433   5.626753   4.012417   5.159264   3.080374
    29  O    4.408154   3.457811   4.628295   5.345764   4.236878
    30  H    4.649502   3.576604   4.409529   4.977158   3.970947
    31  H    3.733051   3.830873   4.156132   5.045362   3.633046
    32  O    5.031923   3.445228   3.638060   2.785311   4.594302
    33  H    5.625379   3.974648   3.989423   3.040490   4.777597
    34  H    4.305758   3.650075   2.752268   1.829518   3.772005
                   26         27         28         29         30
    26  O    0.000000
    27  H    0.994561   0.000000
    28  H    0.951574   1.536826   0.000000
    29  O    2.775784   3.165933   3.308159   0.000000
    30  H    3.084596   3.220146   3.554435   0.963099   0.000000
    31  H    1.819072   2.328790   2.354255   0.974252   1.525256
    32  O    6.202408   5.535356   6.994840   5.778790   5.381527
    33  H    6.507888   5.808939   7.232937   5.935401   5.397151
    34  H    5.609368   4.858913   6.366082   5.605401   5.223885
                   31         32         33         34
    31  H    0.000000
    32  O    5.928414   0.000000
    33  H    6.142070   0.960395   0.000000
    34  H    5.597260   0.981607   1.517776   0.000000
 Symmetry turned off by external request.
 Stoichiometry    C7H21NO5
 Framework group  C1[X(C7H21NO5)]
 Deg. of freedom    96
 Full point group                 C1      NOp   1
 Rotational constants (GHZ):           0.6993930           0.5692842           0.3983783
 Leave Link  202 at Mon Feb 20 00:58:36 2023, MaxMem=  6710886400 cpu:               0.1 elap:               0.0
 (Enter /data0/home/software/g16/l122.exe)
 Counterpoise: doing full-system calculation.
 Leave Link  122 at Mon Feb 20 00:58:36 2023, MaxMem=  6710886400 cpu:               0.1 elap:               0.0
 (Enter /data0/home/software/g16/l301.exe)
 Standard basis: 6-311+G(2d,p) (5D, 7F)
 Ernie: Thresh=  0.10000D-02 Tol=  0.10000D-05 Strict=F.
   477 basis functions,   714 primitive gaussians,   503 cartesian basis functions
    55 alpha electrons       55 beta electrons
       nuclear repulsion energy       972.0222299947 Hartrees.
 IExCor= 4336 DFT=T Ex+Corr=M062X ExCW=0 ScaHFX=  0.540000
 ScaDFX=  1.000000  1.000000  1.000000  1.000000 ScalE2=  1.000000  1.000000
 IRadAn=      5 IRanWt=     -1 IRanGd=            0 ICorTp=0 IEmpDi=131
 NAtoms=   34 NActive=   34 NUniq=   34 SFac= 1.00D+00 NAtFMM=   60 NAOKFM=F Big=F
 Integral buffers will be    131072 words long.
 Raffenetti 2 integral format.
 Two-electron integral symmetry is turned off.
 R6Disp:  Grimme-D3 Dispersion energy=       -0.0023105737 Hartrees.
 Nuclear repulsion after empirical dispersion term =      972.0199194210 Hartrees.
 Leave Link  301 at Mon Feb 20 00:58:36 2023, MaxMem=  6710886400 cpu:               1.1 elap:               0.1
 (Enter /data0/home/software/g16/l302.exe)
 NPDir=0 NMtPBC=     1 NCelOv=     1 NCel=       1 NClECP=     1 NCelD=      1
         NCelK=      1 NCelE2=     1 NClLst=     1 CellRange=     0.0.
 One-electron integrals computed using PRISM.
 NBasis=   477 RedAO= T EigKep=  5.74D-06  NBF=   477
 NBsUse=   477 1.00D-06 EigRej= -1.00D+00 NBFU=   477
 Precomputing XC quadrature grid using
 IXCGrd= 4 IRadAn=           5 IRanWt=          -1 IRanGd=           0 AccXCQ= 0.00D+00.
 Generated NRdTot=       0 NPtTot=           0 NUsed=           0 NTot=          32
 NSgBfM=   503   503   503   503   503 MxSgAt=    34 MxSgA2=    34.
 Leave Link  302 at Mon Feb 20 00:58:37 2023, MaxMem=  6710886400 cpu:              11.4 elap:               0.5
 (Enter /data0/home/software/g16/l303.exe)
 DipDrv:  MaxL=1.
 Leave Link  303 at Mon Feb 20 00:58:37 2023, MaxMem=  6710886400 cpu:               1.2 elap:               0.1
 (Enter /data0/home/software/g16/l401.exe)
 ExpMin= 4.38D-02 ExpMax= 8.59D+03 ExpMxC= 1.30D+03 IAcc=3 IRadAn=         5 AccDes= 0.00D+00
 Harris functional with IExCor= 1009 and IRadAn=       5 diagonalized for initial guess.
 HarFok:  IExCor= 1009 AccDes= 0.00D+00 IRadAn=         5 IDoV= 1 UseB2=F ITyADJ=14
 ICtDFT=  3500011 ScaDFX=  1.000000  1.000000  1.000000  1.000000
 FoFCou: FMM=F IPFlag=           0 FMFlag=      100000 FMFlg1=           0
         NFxFlg=           0 DoJE=T BraDBF=F KetDBF=T FulRan=T
         wScrn=  0.000000 ICntrl=       500 IOpCl=  0 I1Cent=   200000004 NGrid=           0
         NMat0=    1 NMatS0=      1 NMatT0=    0 NMatD0=    1 NMtDS0=    0 NMtDT0=    0
 Symmetry not used in FoFCou.
 Harris En= -709.973176301981    
 JPrj=0 DoOrth=F DoCkMO=F.
 Leave Link  401 at Mon Feb 20 00:58:39 2023, MaxMem=  6710886400 cpu:              49.4 elap:               2.1
 (Enter /data0/home/software/g16/l502.exe)
 Two-electron integral symmetry not used.
 Closed shell SCF:
 Using DIIS extrapolation, IDIIS=  1040.
 NGot=  6710886400 LenX=  6710364569 LenY=  6710111057
 Requested convergence on RMS density matrix=1.00D-08 within 128 cycles.
 Requested convergence on MAX density matrix=1.00D-06.
 Requested convergence on             energy=1.00D-06.
 No special actions if energy rises.
 Fock matrices will be formed incrementally for  20 cycles.

 Cycle   1  Pass 1  IDiag  1:
 FoFJK:  IHMeth= 1 ICntrl=       0 DoSepK=F KAlg= 0 I1Cent=           0 FoldK=F
 IRaf= 900000000 NMat=       1 IRICut=       1 DoRegI=T DoRafI=F ISym2E= 0 IDoP0=0 IntGTp=1.
 FoFCou: FMM=F IPFlag=           0 FMFlag=      100000 FMFlg1=           0
         NFxFlg=           0 DoJE=F BraDBF=F KetDBF=F FulRan=T
         wScrn=  0.000000 ICntrl=         0 IOpCl=  0 I1Cent=           0 NGrid=           0
         NMat0=    1 NMatS0=      1 NMatT0=    0 NMatD0=    1 NMtDS0=    0 NMtDT0=    0
 Symmetry not used in FoFCou.
 E= -709.663627151884    
 DIIS: error= 2.25D-02 at cycle   1 NSaved=   1.
 NSaved= 1 IEnMin= 1 EnMin= -709.663627151884     IErMin= 1 ErrMin= 2.25D-02
 ErrMax= 2.25D-02  0.00D+00 EMaxC= 1.00D-01 BMatC= 7.87D-01 BMatP= 7.87D-01
 IDIUse=3 WtCom= 7.75D-01 WtEn= 2.25D-01
 Coeff-Com:  0.100D+01
 Coeff-En:   0.100D+01
 Coeff:      0.100D+01
 Gap=     0.338 Goal=   None    Shift=    0.000
 GapD=    0.338 DampG=1.000 DampE=0.500 DampFc=0.5000 IDamp=-1.
 Damping current iteration by 5.00D-01
 RMSDP=1.21D-02 MaxDP=1.79D+00              OVMax= 1.73D-01

 Cycle   2  Pass 1  IDiag  1:
 RMSU=  5.78D-03    CP:  1.16D+00
 E= -709.913182488320     Delta-E=       -0.249555336436 Rises=F Damp=T
 DIIS: error= 5.56D-03 at cycle   2 NSaved=   2.
 NSaved= 2 IEnMin= 2 EnMin= -709.913182488320     IErMin= 2 ErrMin= 5.56D-03
 ErrMax= 5.56D-03  0.00D+00 EMaxC= 1.00D-01 BMatC= 4.45D-02 BMatP= 7.87D-01
 IDIUse=3 WtCom= 9.44D-01 WtEn= 5.56D-02
 Coeff-Com:  0.748D-02 0.993D+00
 Coeff-En:   0.359D-01 0.964D+00
 Coeff:      0.905D-02 0.991D+00
 Gap=     0.266 Goal=   None    Shift=    0.000
 RMSDP=3.44D-03 MaxDP=5.31D-01 DE=-2.50D-01 OVMax= 9.87D-02

 Cycle   3  Pass 1  IDiag  1:
 RMSU=  2.68D-03    CP:  1.02D+00  7.52D-01
 E= -710.188655808772     Delta-E=       -0.275473320452 Rises=F Damp=F
 DIIS: error= 2.91D-03 at cycle   3 NSaved=   3.
 NSaved= 3 IEnMin= 3 EnMin= -710.188655808772     IErMin= 3 ErrMin= 2.91D-03
 ErrMax= 2.91D-03  0.00D+00 EMaxC= 1.00D-01 BMatC= 9.30D-03 BMatP= 4.45D-02
 IDIUse=3 WtCom= 9.71D-01 WtEn= 2.91D-02
 Coeff-Com: -0.490D-01 0.266D+00 0.783D+00
 Coeff-En:   0.000D+00 0.000D+00 0.100D+01
 Coeff:     -0.476D-01 0.258D+00 0.790D+00
 Gap=     0.270 Goal=   None    Shift=    0.000
 RMSDP=5.21D-04 MaxDP=6.39D-02 DE=-2.75D-01 OVMax= 1.54D-02

 Cycle   4  Pass 1  IDiag  1:
 RMSU=  4.80D-04    CP:  1.03D+00  7.85D-01  1.01D+00
 E= -710.193880139136     Delta-E=       -0.005224330364 Rises=F Damp=F
 DIIS: error= 1.81D-03 at cycle   4 NSaved=   4.
 NSaved= 4 IEnMin= 4 EnMin= -710.193880139136     IErMin= 4 ErrMin= 1.81D-03
 ErrMax= 1.81D-03  0.00D+00 EMaxC= 1.00D-01 BMatC= 1.99D-03 BMatP= 9.30D-03
 IDIUse=3 WtCom= 9.82D-01 WtEn= 1.81D-02
 Coeff-Com: -0.209D-01 0.526D-01 0.369D+00 0.599D+00
 Coeff-En:   0.000D+00 0.000D+00 0.153D+00 0.847D+00
 Coeff:     -0.205D-01 0.516D-01 0.365D+00 0.604D+00
 Gap=     0.268 Goal=   None    Shift=    0.000
 RMSDP=2.45D-04 MaxDP=4.03D-02 DE=-5.22D-03 OVMax= 5.93D-03

 Cycle   5  Pass 1  IDiag  1:
 RMSU=  1.61D-04    CP:  1.02D+00  7.67D-01  1.01D+00  8.25D-01
 E= -710.195645162036     Delta-E=       -0.001765022900 Rises=F Damp=F
 DIIS: error= 2.22D-04 at cycle   5 NSaved=   5.
 NSaved= 5 IEnMin= 5 EnMin= -710.195645162036     IErMin= 5 ErrMin= 2.22D-04
 ErrMax= 2.22D-04  0.00D+00 EMaxC= 1.00D-01 BMatC= 7.08D-05 BMatP= 1.99D-03
 IDIUse=3 WtCom= 9.98D-01 WtEn= 2.22D-03
 Coeff-Com: -0.628D-02 0.114D-01 0.117D+00 0.250D+00 0.628D+00
 Coeff-En:   0.000D+00 0.000D+00 0.000D+00 0.000D+00 0.100D+01
 Coeff:     -0.627D-02 0.114D-01 0.117D+00 0.249D+00 0.629D+00
 Gap=     0.267 Goal=   None    Shift=    0.000
 RMSDP=7.91D-05 MaxDP=9.78D-03 DE=-1.77D-03 OVMax= 1.89D-03

 Cycle   6  Pass 1  IDiag  1:
 RMSU=  5.10D-05    CP:  1.02D+00  7.72D-01  1.01D+00  8.86D-01  8.30D-01
 E= -710.195693868467     Delta-E=       -0.000048706431 Rises=F Damp=F
 DIIS: error= 9.11D-05 at cycle   6 NSaved=   6.
 NSaved= 6 IEnMin= 6 EnMin= -710.195693868467     IErMin= 6 ErrMin= 9.11D-05
 ErrMax= 9.11D-05  0.00D+00 EMaxC= 1.00D-01 BMatC= 9.32D-06 BMatP= 7.08D-05
 IDIUse=1 WtCom= 1.00D+00 WtEn= 0.00D+00
 Coeff-Com: -0.762D-03-0.134D-03 0.181D-01 0.595D-01 0.299D+00 0.625D+00
 Coeff:     -0.762D-03-0.134D-03 0.181D-01 0.595D-01 0.299D+00 0.625D+00
 Gap=     0.267 Goal=   None    Shift=    0.000
 RMSDP=1.66D-05 MaxDP=1.92D-03 DE=-4.87D-05 OVMax= 8.55D-04

 Cycle   7  Pass 1  IDiag  1:
 RMSU=  1.43D-05    CP:  1.02D+00  7.71D-01  1.01D+00  8.95D-01  8.07D-01
                    CP:  9.74D-01
 E= -710.195700488246     Delta-E=       -0.000006619778 Rises=F Damp=F
 DIIS: error= 3.16D-05 at cycle   7 NSaved=   7.
 NSaved= 7 IEnMin= 7 EnMin= -710.195700488246     IErMin= 7 ErrMin= 3.16D-05
 ErrMax= 3.16D-05  0.00D+00 EMaxC= 1.00D-01 BMatC= 7.96D-07 BMatP= 9.32D-06
 IDIUse=1 WtCom= 1.00D+00 WtEn= 0.00D+00
 Coeff-Com:  0.516D-03-0.153D-02-0.677D-02-0.683D-02 0.390D-01 0.239D+00
 Coeff-Com:  0.736D+00
 Coeff:      0.516D-03-0.153D-02-0.677D-02-0.683D-02 0.390D-01 0.239D+00
 Coeff:      0.736D+00
 Gap=     0.267 Goal=   None    Shift=    0.000
 RMSDP=1.05D-05 MaxDP=1.90D-03 DE=-6.62D-06 OVMax= 3.10D-04

 Cycle   8  Pass 1  IDiag  1:
 RMSU=  5.45D-06    CP:  1.02D+00  7.70D-01  1.01D+00  8.99D-01  8.31D-01
                    CP:  9.54D-01  9.47D-01
 E= -710.195701034180     Delta-E=       -0.000000545934 Rises=F Damp=F
 DIIS: error= 1.76D-05 at cycle   8 NSaved=   8.
 NSaved= 8 IEnMin= 8 EnMin= -710.195701034180     IErMin= 8 ErrMin= 1.76D-05
 ErrMax= 1.76D-05  0.00D+00 EMaxC= 1.00D-01 BMatC= 2.44D-07 BMatP= 7.96D-07
 IDIUse=1 WtCom= 1.00D+00 WtEn= 0.00D+00
 Coeff-Com:  0.397D-03-0.801D-03-0.623D-02-0.123D-01-0.198D-01 0.456D-01
 Coeff-Com:  0.414D+00 0.579D+00
 Coeff:      0.397D-03-0.801D-03-0.623D-02-0.123D-01-0.198D-01 0.456D-01
 Coeff:      0.414D+00 0.579D+00
 Gap=     0.267 Goal=   None    Shift=    0.000
 RMSDP=3.21D-06 MaxDP=3.62D-04 DE=-5.46D-07 OVMax= 1.47D-04

 Cycle   9  Pass 1  IDiag  1:
 RMSU=  2.24D-06    CP:  1.02D+00  7.70D-01  1.01D+00  9.01D-01  8.36D-01
                    CP:  9.85D-01  9.28D-01  8.73D-01
 E= -710.195701218785     Delta-E=       -0.000000184605 Rises=F Damp=F
 DIIS: error= 2.82D-06 at cycle   9 NSaved=   9.
 NSaved= 9 IEnMin= 9 EnMin= -710.195701218785     IErMin= 9 ErrMin= 2.82D-06
 ErrMax= 2.82D-06  0.00D+00 EMaxC= 1.00D-01 BMatC= 9.32D-09 BMatP= 2.44D-07
 IDIUse=1 WtCom= 1.00D+00 WtEn= 0.00D+00
 Coeff-Com:  0.794D-04-0.129D-03-0.143D-02-0.349D-02-0.950D-02-0.551D-02
 Coeff-Com:  0.726D-01 0.201D+00 0.746D+00
 Coeff:      0.794D-04-0.129D-03-0.143D-02-0.349D-02-0.950D-02-0.551D-02
 Coeff:      0.726D-01 0.201D+00 0.746D+00
 Gap=     0.267 Goal=   None    Shift=    0.000
 RMSDP=1.06D-06 MaxDP=1.12D-04 DE=-1.85D-07 OVMax= 3.24D-05

 Cycle  10  Pass 1  IDiag  1:
 RMSU=  7.38D-07    CP:  1.02D+00  7.70D-01  1.01D+00  9.02D-01  8.35D-01
                    CP:  9.92D-01  9.25D-01  8.59D-01  1.09D+00
 E= -710.195701226569     Delta-E=       -0.000000007784 Rises=F Damp=F
 DIIS: error= 1.01D-06 at cycle  10 NSaved=  10.
 NSaved=10 IEnMin=10 EnMin= -710.195701226569     IErMin=10 ErrMin= 1.01D-06
 ErrMax= 1.01D-06  0.00D+00 EMaxC= 1.00D-01 BMatC= 1.04D-09 BMatP= 9.32D-09
 IDIUse=1 WtCom= 1.00D+00 WtEn= 0.00D+00
 Coeff-Com: -0.214D-04 0.473D-04 0.226D-03 0.186D-03-0.989D-03-0.759D-02
 Coeff-Com: -0.256D-01 0.345D-02 0.260D+00 0.771D+00
 Coeff:     -0.214D-04 0.473D-04 0.226D-03 0.186D-03-0.989D-03-0.759D-02
 Coeff:     -0.256D-01 0.345D-02 0.260D+00 0.771D+00
 Gap=     0.267 Goal=   None    Shift=    0.000
 RMSDP=4.09D-07 MaxDP=3.83D-05 DE=-7.78D-09 OVMax= 9.52D-06

 Cycle  11  Pass 1  IDiag  1:
 RMSU=  1.42D-07    CP:  1.02D+00  7.70D-01  1.01D+00  9.02D-01  8.35D-01
                    CP:  9.93D-01  9.18D-01  8.79D-01  1.21D+00  1.05D+00
 E= -710.195701227625     Delta-E=       -0.000000001055 Rises=F Damp=F
 DIIS: error= 4.19D-07 at cycle  11 NSaved=  11.
 NSaved=11 IEnMin=11 EnMin= -710.195701227625     IErMin=11 ErrMin= 4.19D-07
 ErrMax= 4.19D-07  0.00D+00 EMaxC= 1.00D-01 BMatC= 1.66D-10 BMatP= 1.04D-09
 IDIUse=1 WtCom= 1.00D+00 WtEn= 0.00D+00
 Coeff-Com: -0.163D-04 0.331D-04 0.228D-03 0.406D-03 0.565D-03-0.237D-02
 Coeff-Com: -0.180D-01-0.178D-01 0.297D-01 0.336D+00 0.671D+00
 Coeff:     -0.163D-04 0.331D-04 0.228D-03 0.406D-03 0.565D-03-0.237D-02
 Coeff:     -0.180D-01-0.178D-01 0.297D-01 0.336D+00 0.671D+00
 Gap=     0.267 Goal=   None    Shift=    0.000
 RMSDP=1.13D-07 MaxDP=1.23D-05 DE=-1.06D-09 OVMax= 3.69D-06

 Cycle  12  Pass 1  IDiag  1:
 RMSU=  4.83D-08    CP:  1.02D+00  7.70D-01  1.01D+00  9.02D-01  8.35D-01
                    CP:  9.92D-01  9.17D-01  8.90D-01  1.23D+00  1.05D+00
                    CP:  1.11D+00
 E= -710.195701227743     Delta-E=       -0.000000000118 Rises=F Damp=F
 DIIS: error= 1.04D-07 at cycle  12 NSaved=  12.
 NSaved=12 IEnMin=12 EnMin= -710.195701227743     IErMin=12 ErrMin= 1.04D-07
 ErrMax= 1.04D-07  0.00D+00 EMaxC= 1.00D-01 BMatC= 9.25D-12 BMatP= 1.66D-10
 IDIUse=1 WtCom= 1.00D+00 WtEn= 0.00D+00
 Coeff-Com: -0.300D-05 0.592D-05 0.530D-04 0.110D-03 0.254D-03-0.427D-04
 Coeff-Com: -0.353D-02-0.536D-02-0.154D-01 0.347D-01 0.191D+00 0.798D+00
 Coeff:     -0.300D-05 0.592D-05 0.530D-04 0.110D-03 0.254D-03-0.427D-04
 Coeff:     -0.353D-02-0.536D-02-0.154D-01 0.347D-01 0.191D+00 0.798D+00
 Gap=     0.267 Goal=   None    Shift=    0.000
 RMSDP=5.86D-08 MaxDP=6.75D-06 DE=-1.18D-10 OVMax= 1.73D-06

 Cycle  13  Pass 1  IDiag  1:
 RMSU=  2.03D-08    CP:  1.02D+00  7.70D-01  1.01D+00  9.02D-01  8.35D-01
                    CP:  9.92D-01  9.16D-01  8.90D-01  1.24D+00  1.07D+00
                    CP:  1.13D+00  1.01D+00
 E= -710.195701227747     Delta-E=       -0.000000000004 Rises=F Damp=F
 DIIS: error= 5.76D-08 at cycle  13 NSaved=  13.
 NSaved=13 IEnMin=13 EnMin= -710.195701227747     IErMin=13 ErrMin= 5.76D-08
 ErrMax= 5.76D-08  0.00D+00 EMaxC= 1.00D-01 BMatC= 2.43D-12 BMatP= 9.25D-12
 IDIUse=1 WtCom= 1.00D+00 WtEn= 0.00D+00
 Coeff-Com:  0.138D-05-0.262D-05-0.124D-04-0.149D-04 0.282D-04 0.367D-03
 Coeff-Com:  0.108D-02 0.359D-03-0.118D-01-0.348D-01-0.226D-01 0.351D+00
 Coeff-Com:  0.716D+00
 Coeff:      0.138D-05-0.262D-05-0.124D-04-0.149D-04 0.282D-04 0.367D-03
 Coeff:      0.108D-02 0.359D-03-0.118D-01-0.348D-01-0.226D-01 0.351D+00
 Coeff:      0.716D+00
 Gap=     0.267 Goal=   None    Shift=    0.000
 RMSDP=1.54D-08 MaxDP=2.04D-06 DE=-3.87D-12 OVMax= 8.10D-07

 Cycle  14  Pass 1  IDiag  1:
 RMSU=  5.82D-09    CP:  1.02D+00  7.70D-01  1.01D+00  9.02D-01  8.35D-01
                    CP:  9.92D-01  9.16D-01  8.91D-01  1.24D+00  1.07D+00
                    CP:  1.16D+00  1.07D+00  1.18D+00
 E= -710.195701227779     Delta-E=       -0.000000000032 Rises=F Damp=F
 DIIS: error= 1.51D-08 at cycle  14 NSaved=  14.
 NSaved=14 IEnMin=14 EnMin= -710.195701227779     IErMin=14 ErrMin= 1.51D-08
 ErrMax= 1.51D-08  0.00D+00 EMaxC= 1.00D-01 BMatC= 1.43D-13 BMatP= 2.43D-12
 IDIUse=1 WtCom= 1.00D+00 WtEn= 0.00D+00
 Coeff-Com:  0.648D-06-0.131D-05-0.814D-05-0.141D-04-0.183D-04 0.102D-03
 Coeff-Com:  0.618D-03 0.706D-03-0.121D-02-0.127D-01-0.268D-01 0.363D-02
 Coeff-Com:  0.194D+00 0.841D+00
 Coeff:      0.648D-06-0.131D-05-0.814D-05-0.141D-04-0.183D-04 0.102D-03
 Coeff:      0.618D-03 0.706D-03-0.121D-02-0.127D-01-0.268D-01 0.363D-02
 Coeff:      0.194D+00 0.841D+00
 Gap=     0.267 Goal=   None    Shift=    0.000
 RMSDP=4.54D-09 MaxDP=5.22D-07 DE=-3.18D-11 OVMax= 3.60D-07

 SCF Done:  E(RM062X) =  -710.195701228     A.U. after   14 cycles
            NFock= 14  Conv=0.45D-08     -V/T= 2.0042
 KE= 7.072573103291D+02 PE=-3.607899326139D+03 EE= 1.218426395161D+03
 Leave Link  502 at Mon Feb 20 01:00:10 2023, MaxMem=  6710886400 cpu:            2180.8 elap:              91.2
 (Enter /data0/home/software/g16/l601.exe)
 Copying SCF densities to generalized density rwf, IOpCl= 0 IROHF=0.

 **********************************************************************

            Population analysis using the SCF density.

 **********************************************************************

 Alpha  occ. eigenvalues --  -19.61568 -19.60722 -19.59885 -19.53564 -19.53386
 Alpha  occ. eigenvalues --  -14.91181 -10.62845 -10.62453 -10.61653 -10.60442
 Alpha  occ. eigenvalues --  -10.59775 -10.55723 -10.52139  -1.15725  -1.13219
 Alpha  occ. eigenvalues --   -1.12888  -1.11675  -1.10711  -1.03047  -0.90827
 Alpha  occ. eigenvalues --   -0.87211  -0.86753  -0.82232  -0.74742  -0.69619
 Alpha  occ. eigenvalues --   -0.63035  -0.62640  -0.61319  -0.60640  -0.59766
 Alpha  occ. eigenvalues --   -0.59171  -0.56450  -0.54412  -0.53157  -0.52158
 Alpha  occ. eigenvalues --   -0.51095  -0.50504  -0.49647  -0.49378  -0.49061
 Alpha  occ. eigenvalues --   -0.48346  -0.47813  -0.46604  -0.45688  -0.45077
 Alpha  occ. eigenvalues --   -0.44309  -0.43202  -0.40493  -0.39946  -0.38928
 Alpha  occ. eigenvalues --   -0.38164  -0.37812  -0.29460  -0.28526  -0.28484
 Alpha virt. eigenvalues --   -0.01795  -0.00053   0.00944   0.01176   0.03130
 Alpha virt. eigenvalues --    0.03518   0.03787   0.04172   0.04424   0.05279
 Alpha virt. eigenvalues --    0.07119   0.07661   0.08215   0.08572   0.08645
 Alpha virt. eigenvalues --    0.08972   0.09684   0.10703   0.11284   0.11664
 Alpha virt. eigenvalues --    0.12020   0.12342   0.12668   0.13772   0.14153
 Alpha virt. eigenvalues --    0.14220   0.14768   0.15041   0.15823   0.16480
 Alpha virt. eigenvalues --    0.16584   0.17082   0.17621   0.18201   0.18451
 Alpha virt. eigenvalues --    0.18887   0.19545   0.19979   0.20451   0.20971
 Alpha virt. eigenvalues --    0.21554   0.21686   0.22417   0.22921   0.23380
 Alpha virt. eigenvalues --    0.23467   0.24191   0.24662   0.24988   0.25277
 Alpha virt. eigenvalues --    0.26210   0.26588   0.26931   0.27325   0.27806
 Alpha virt. eigenvalues --    0.28303   0.29326   0.30106   0.30254   0.30968
 Alpha virt. eigenvalues --    0.31130   0.31910   0.32251   0.32545   0.33454
 Alpha virt. eigenvalues --    0.34164   0.34323   0.36051   0.36359   0.36772
 Alpha virt. eigenvalues --    0.37097   0.37675   0.38899   0.39136   0.40541
 Alpha virt. eigenvalues --    0.40973   0.41429   0.42586   0.43875   0.44208
 Alpha virt. eigenvalues --    0.45160   0.47170   0.48686   0.49700   0.49817
 Alpha virt. eigenvalues --    0.50198   0.51646   0.52007   0.53032   0.53298
 Alpha virt. eigenvalues --    0.54094   0.54956   0.56206   0.56929   0.57373
 Alpha virt. eigenvalues --    0.57523   0.58493   0.59377   0.60428   0.60826
 Alpha virt. eigenvalues --    0.61419   0.62130   0.62974   0.63838   0.64531
 Alpha virt. eigenvalues --    0.65184   0.65513   0.66002   0.67117   0.67956
 Alpha virt. eigenvalues --    0.68155   0.68903   0.69743   0.70081   0.70794
 Alpha virt. eigenvalues --    0.72641   0.73000   0.74271   0.74872   0.75759
 Alpha virt. eigenvalues --    0.76542   0.77051   0.77919   0.78073   0.79426
 Alpha virt. eigenvalues --    0.80472   0.81829   0.83093   0.84795   0.85175
 Alpha virt. eigenvalues --    0.86262   0.87737   0.89256   0.90391   0.92691
 Alpha virt. eigenvalues --    0.93845   0.94284   0.95166   0.96933   0.97350
 Alpha virt. eigenvalues --    1.00553   1.02676   1.04826   1.05612   1.08378
 Alpha virt. eigenvalues --    1.09706   1.10286   1.11363   1.11751   1.13985
 Alpha virt. eigenvalues --    1.14584   1.15588   1.16115   1.16317   1.16777
 Alpha virt. eigenvalues --    1.17698   1.18914   1.19409   1.20102   1.20308
 Alpha virt. eigenvalues --    1.21474   1.22418   1.22869   1.24001   1.24502
 Alpha virt. eigenvalues --    1.26256   1.27271   1.27576   1.27832   1.29016
 Alpha virt. eigenvalues --    1.29393   1.29982   1.31495   1.32633   1.33735
 Alpha virt. eigenvalues --    1.33979   1.35361   1.36621   1.37134   1.38995
 Alpha virt. eigenvalues --    1.39646   1.41082   1.41620   1.42700   1.44755
 Alpha virt. eigenvalues --    1.45506   1.45811   1.47064   1.47878   1.48432
 Alpha virt. eigenvalues --    1.49245   1.51594   1.52597   1.52876   1.55201
 Alpha virt. eigenvalues --    1.55867   1.57510   1.59722   1.60434   1.62083
 Alpha virt. eigenvalues --    1.63778   1.65963   1.67387   1.71361   1.72387
 Alpha virt. eigenvalues --    1.73566   1.74605   1.75176   1.75424   1.76325
 Alpha virt. eigenvalues --    1.77744   1.78524   1.78880   1.79237   1.80757
 Alpha virt. eigenvalues --    1.81939   1.82909   1.84149   1.85182   1.86353
 Alpha virt. eigenvalues --    1.87162   1.88834   1.89423   1.90719   1.90919
 Alpha virt. eigenvalues --    1.92433   1.93150   1.96424   1.97304   1.99270
 Alpha virt. eigenvalues --    2.00097   2.03923   2.04746   2.05455   2.08615
 Alpha virt. eigenvalues --    2.09758   2.11112   2.11896   2.12181   2.14281
 Alpha virt. eigenvalues --    2.15786   2.17652   2.19921   2.21210   2.22006
 Alpha virt. eigenvalues --    2.23391   2.23862   2.25300   2.27382   2.27946
 Alpha virt. eigenvalues --    2.29868   2.30670   2.31064   2.32077   2.34159
 Alpha virt. eigenvalues --    2.35277   2.35689   2.36256   2.37599   2.38367
 Alpha virt. eigenvalues --    2.39146   2.40635   2.40978   2.42654   2.43560
 Alpha virt. eigenvalues --    2.44166   2.45377   2.46781   2.47687   2.49382
 Alpha virt. eigenvalues --    2.49711   2.51521   2.54170   2.56904   2.58614
 Alpha virt. eigenvalues --    2.59692   2.61253   2.63421   2.64762   2.65482
 Alpha virt. eigenvalues --    2.66751   2.68576   2.70329   2.72034   2.73234
 Alpha virt. eigenvalues --    2.76957   2.78018   2.80285   2.82530   2.85872
 Alpha virt. eigenvalues --    2.87073   2.88392   2.91519   2.96306   2.96949
 Alpha virt. eigenvalues --    2.98516   3.00914   3.01129   3.03134   3.04355
 Alpha virt. eigenvalues --    3.07059   3.08740   3.11641   3.14625   3.15713
 Alpha virt. eigenvalues --    3.16123   3.16420   3.17747   3.20402   3.21649
 Alpha virt. eigenvalues --    3.24424   3.26279   3.30567   3.32791   3.34341
 Alpha virt. eigenvalues --    3.34527   3.38190   3.39383   3.40088   3.41295
 Alpha virt. eigenvalues --    3.43063   3.46317   3.50637   3.52838   3.53649
 Alpha virt. eigenvalues --    3.53929   3.55717   3.59289   3.60577   3.60640
 Alpha virt. eigenvalues --    3.61913   3.63080   3.64524   3.66976   3.67850
 Alpha virt. eigenvalues --    3.68817   3.72386   3.72979   3.74571   3.74965
 Alpha virt. eigenvalues --    3.77345   3.82848   3.83928   3.84757   3.85021
 Alpha virt. eigenvalues --    3.92495   3.97108   4.01842   4.05940   4.12051
 Alpha virt. eigenvalues --    4.13922   4.14988   4.15910   4.17117   4.18574
 Alpha virt. eigenvalues --    4.20474   4.24646   4.30780   4.37571   4.44903
 Alpha virt. eigenvalues --    4.51437   4.78700   4.79921   4.81767   5.18562
 Alpha virt. eigenvalues --    5.19193   5.20755   5.24247   5.25256   5.32417
 Alpha virt. eigenvalues --    5.35390   5.42015   5.44014   5.46674   5.49756
 Alpha virt. eigenvalues --    5.52112   5.58127   5.63037   5.63322   5.95303
 Alpha virt. eigenvalues --    5.96473   5.98954   6.00855   6.26537   6.82376
 Alpha virt. eigenvalues --    6.82764   6.84364   6.84826   6.86962   6.90306
 Alpha virt. eigenvalues --    6.90572   6.91762   6.92846   6.93854   6.95498
 Alpha virt. eigenvalues --    6.97032   6.98012   6.99043   7.01004   7.05672
 Alpha virt. eigenvalues --    7.12951   7.16247   7.17475   7.18930   7.23617
 Alpha virt. eigenvalues --    7.24624   7.31644   7.35917   7.44044  23.95628
 Alpha virt. eigenvalues --   24.01142  24.05756  24.08139  24.09623  24.11699
 Alpha virt. eigenvalues --   24.26026  35.53329  50.05492  50.05871  50.07864
 Alpha virt. eigenvalues --   50.20768  50.24483
          Condensed to atoms (all electrons):
               1          2          3          4          5          6
     1  C    5.836836   0.425499   0.389605   0.393531  -0.071871   0.032457
     2  H    0.425499   0.443814  -0.017531  -0.019570   0.028780  -0.000204
     3  H    0.389605  -0.017531   0.464411  -0.016877  -0.020027   0.000062
     4  H    0.393531  -0.019570  -0.016877   0.453789  -0.012192   0.000317
     5  C   -0.071871   0.028780  -0.020027  -0.012192   5.772252   0.424111
     6  H    0.032457  -0.000204   0.000062   0.000317   0.424111   0.456157
     7  H   -0.010362   0.000367   0.000487   0.001585   0.428539  -0.017155
     8  H   -0.031071   0.000011  -0.000666   0.000046   0.382296  -0.018186
     9  C   -0.144382  -0.006306  -0.031862   0.028470  -0.157400  -0.020730
    10  H    0.028111   0.000378   0.000182  -0.000256   0.000864   0.000411
    11  H   -0.026114   0.000432  -0.000502   0.000447  -0.029712   0.000380
    12  H   -0.007955   0.000687  -0.000169  -0.000042   0.011548   0.000198
    13  C   -1.014296  -0.072589   0.063116  -0.020312  -0.831795  -0.116468
    14  H   -0.028465   0.000285   0.000176   0.001208  -0.000458  -0.001217
    15  H    0.018307  -0.000904   0.001100  -0.001065  -0.004248  -0.000201
    16  C    0.102504  -0.009693   0.002329  -0.004394  -0.110735   0.018218
    17  H   -0.008876   0.000061  -0.000022   0.000086   0.001227   0.000236
    18  H    0.009311   0.000127   0.000037   0.000060   0.007175  -0.000867
    19  C   -0.003537   0.002615   0.002276  -0.002504   0.109532   0.013761
    20  H    0.000670   0.000004  -0.000000   0.000003   0.000533  -0.000004
    21  H   -0.000819  -0.000005  -0.000002   0.000009  -0.000645  -0.000114
    22  N    0.479340  -0.002487  -0.032163  -0.013374   0.526654   0.024773
    23  C   -0.031263  -0.001162  -0.000529  -0.000581  -0.068603  -0.002941
    24  O    0.004081  -0.000887  -0.000011   0.000034  -0.003793  -0.000054
    25  O   -0.000155   0.000129   0.000005   0.000089   0.001091  -0.000029
    26  O    0.001666  -0.000076  -0.000002  -0.000076   0.001925  -0.000042
    27  H   -0.000193   0.000030   0.000002   0.000092   0.003219   0.000063
    28  H   -0.000225  -0.000001  -0.000000  -0.000013  -0.000685  -0.000000
    29  O   -0.041913   0.000325   0.000360   0.008279   0.013563   0.001216
    30  H    0.000899  -0.000082   0.000064   0.002867  -0.000666  -0.000058
    31  H    0.000076   0.000033  -0.000009   0.000645  -0.002740  -0.000317
    32  O    0.015082   0.008493   0.000353   0.001218   0.002542  -0.000000
    33  H   -0.004560  -0.000062   0.000001  -0.000023   0.000433   0.000005
    34  H   -0.002304  -0.001065  -0.000066  -0.000191   0.000162   0.000003
               7          8          9         10         11         12
     1  C   -0.010362  -0.031071  -0.144382   0.028111  -0.026114  -0.007955
     2  H    0.000367   0.000011  -0.006306   0.000378   0.000432   0.000687
     3  H    0.000487  -0.000666  -0.031862   0.000182  -0.000502  -0.000169
     4  H    0.001585   0.000046   0.028470  -0.000256   0.000447  -0.000042
     5  C    0.428539   0.382296  -0.157400   0.000864  -0.029712   0.011548
     6  H   -0.017155  -0.018186  -0.020730   0.000411   0.000380   0.000198
     7  H    0.406016  -0.017770   0.023899   0.000146   0.000248  -0.000181
     8  H   -0.017770   0.465642  -0.019905   0.000024  -0.000884   0.000081
     9  C    0.023899  -0.019905   5.852066   0.399789   0.397473   0.415830
    10  H    0.000146   0.000024   0.399789   0.461144  -0.020307  -0.015852
    11  H    0.000248  -0.000884   0.397473  -0.020307   0.469563  -0.016401
    12  H   -0.000181   0.000081   0.415830  -0.015852  -0.016401   0.380605
    13  C   -0.051839   0.097499  -0.301670  -0.091652   0.060951  -0.008532
    14  H   -0.000444   0.000722   0.009497   0.000162   0.000034  -0.000131
    15  H   -0.000147  -0.000452  -0.006168   0.000209   0.000109   0.000873
    16  C   -0.001427  -0.011841  -0.087311   0.023271   0.002786  -0.014456
    17  H    0.000113   0.000013   0.014032  -0.001634   0.000543   0.000900
    18  H   -0.000233  -0.000036  -0.019981  -0.003285  -0.000203   0.000561
    19  C    0.001014   0.000839  -0.125787   0.002518   0.001812  -0.013204
    20  H   -0.000002  -0.000000   0.003145   0.000063   0.000001   0.000071
    21  H    0.000085  -0.000000  -0.000019  -0.000017   0.000003   0.000003
    22  N   -0.012242  -0.042701   0.223510   0.007494  -0.036086  -0.017898
    23  C   -0.001259   0.000388  -0.018728  -0.000568   0.000549   0.009536
    24  O   -0.000045   0.000000   0.006498   0.000055  -0.000037  -0.001128
    25  O    0.000029   0.000000   0.002086  -0.000000   0.000002  -0.000042
    26  O    0.000203  -0.000021  -0.001199  -0.000009  -0.000002  -0.000002
    27  H   -0.000028  -0.000000   0.000529   0.000007   0.000000   0.000001
    28  H   -0.000033  -0.000001   0.000130   0.000000  -0.000000   0.000000
    29  O   -0.015212   0.000206  -0.011582  -0.000067  -0.000082  -0.000064
    30  H    0.000910  -0.000048   0.001334  -0.000002   0.000010  -0.000001
    31  H    0.002583  -0.000091   0.001559   0.000010   0.000008   0.000007
    32  O   -0.000028  -0.000063   0.001230   0.001997   0.000827  -0.034049
    33  H    0.000001   0.000002   0.003992  -0.000071  -0.000069   0.001207
    34  H    0.000004   0.000012  -0.014111  -0.000576  -0.000179   0.004645
              13         14         15         16         17         18
     1  C   -1.014296  -0.028465   0.018307   0.102504  -0.008876   0.009311
     2  H   -0.072589   0.000285  -0.000904  -0.009693   0.000061   0.000127
     3  H    0.063116   0.000176   0.001100   0.002329  -0.000022   0.000037
     4  H   -0.020312   0.001208  -0.001065  -0.004394   0.000086   0.000060
     5  C   -0.831795  -0.000458  -0.004248  -0.110735   0.001227   0.007175
     6  H   -0.116468  -0.001217  -0.000201   0.018218   0.000236  -0.000867
     7  H   -0.051839  -0.000444  -0.000147  -0.001427   0.000113  -0.000233
     8  H    0.097499   0.000722  -0.000452  -0.011841   0.000013  -0.000036
     9  C   -0.301670   0.009497  -0.006168  -0.087311   0.014032  -0.019981
    10  H   -0.091652   0.000162   0.000209   0.023271  -0.001634  -0.003285
    11  H    0.060951   0.000034   0.000109   0.002786   0.000543  -0.000203
    12  H   -0.008532  -0.000131   0.000873  -0.014456   0.000900   0.000561
    13  C   11.836302   0.538693   0.295514  -1.921318   0.164747  -0.247257
    14  H    0.538693   0.495218  -0.037662  -0.120610   0.006314  -0.005043
    15  H    0.295514  -0.037662   0.458677   0.065511  -0.013634   0.004798
    16  C   -1.921318  -0.120610   0.065511   8.407398   0.201695   0.498196
    17  H    0.164747   0.006314  -0.013634   0.201695   0.497613  -0.035804
    18  H   -0.247257  -0.005043   0.004798   0.498196  -0.035804   0.525745
    19  C    0.399192   0.020263  -0.041646  -1.553261   0.039762  -0.001660
    20  H    0.042597  -0.000056   0.000629   0.005943  -0.007917  -0.002130
    21  H    0.057582   0.001462  -0.001393  -0.124114   0.004580  -0.008851
    22  N   -1.704016  -0.070289  -0.014951   0.125630  -0.048902   0.092902
    23  C   -0.545720  -0.002580   0.041728   0.547197   0.002041   0.020952
    24  O   -0.005071  -0.000839   0.009917   0.092297  -0.016161  -0.000792
    25  O    0.055760  -0.000951  -0.003912   0.002072  -0.000919  -0.002358
    26  O   -0.026248  -0.002760   0.001179   0.051944  -0.000534   0.000004
    27  H    0.032084   0.006949  -0.000790  -0.050495   0.000182   0.000239
    28  H   -0.008520  -0.001550   0.000038   0.007452  -0.000001   0.000016
    29  O   -0.071741   0.015007  -0.002745   0.067268  -0.000255   0.000369
    30  H    0.010312  -0.003160  -0.000202  -0.005731   0.000015  -0.000049
    31  H    0.025572   0.005289   0.000528  -0.021778   0.000038  -0.000046
    32  O   -0.050607   0.002635   0.015625  -0.067322  -0.002266   0.000831
    33  H    0.001309  -0.000054  -0.001275   0.002331  -0.000004  -0.000021
    34  H    0.017011  -0.000771  -0.008293   0.030113  -0.001930   0.000156
              19         20         21         22         23         24
     1  C   -0.003537   0.000670  -0.000819   0.479340  -0.031263   0.004081
     2  H    0.002615   0.000004  -0.000005  -0.002487  -0.001162  -0.000887
     3  H    0.002276  -0.000000  -0.000002  -0.032163  -0.000529  -0.000011
     4  H   -0.002504   0.000003   0.000009  -0.013374  -0.000581   0.000034
     5  C    0.109532   0.000533  -0.000645   0.526654  -0.068603  -0.003793
     6  H    0.013761  -0.000004  -0.000114   0.024773  -0.002941  -0.000054
     7  H    0.001014  -0.000002   0.000085  -0.012242  -0.001259  -0.000045
     8  H    0.000839  -0.000000  -0.000000  -0.042701   0.000388   0.000000
     9  C   -0.125787   0.003145  -0.000019   0.223510  -0.018728   0.006498
    10  H    0.002518   0.000063  -0.000017   0.007494  -0.000568   0.000055
    11  H    0.001812   0.000001   0.000003  -0.036086   0.000549  -0.000037
    12  H   -0.013204   0.000071   0.000003  -0.017898   0.009536  -0.001128
    13  C    0.399192   0.042597   0.057582  -1.704016  -0.545720  -0.005071
    14  H    0.020263  -0.000056   0.001462  -0.070289  -0.002580  -0.000839
    15  H   -0.041646   0.000629  -0.001393  -0.014951   0.041728   0.009917
    16  C   -1.553261   0.005943  -0.124114   0.125630   0.547197   0.092297
    17  H    0.039762  -0.007917   0.004580  -0.048902   0.002041  -0.016161
    18  H   -0.001660  -0.002130  -0.008851   0.092902   0.020952  -0.000792
    19  C    7.668339   0.363122   0.507289   0.164304  -0.925022  -0.104812
    20  H    0.363122   0.516695  -0.030347   0.001229  -0.071123  -0.009399
    21  H    0.507289  -0.030347   0.481466  -0.004190  -0.063979   0.004563
    22  N    0.164304   0.001229  -0.004190   7.465603  -0.126087  -0.011156
    23  C   -0.925022  -0.071123  -0.063979  -0.126087   6.283068   0.340352
    24  O   -0.104812  -0.009399   0.004563  -0.011156   0.340352   8.311687
    25  O   -0.092459   0.008354  -0.011873   0.002017   0.374009  -0.094167
    26  O   -0.053539  -0.000198  -0.002905  -0.004292   0.023745   0.002711
    27  H    0.046271   0.000879  -0.001591   0.003184  -0.033206  -0.002997
    28  H   -0.003472  -0.000020  -0.000027   0.000723   0.004521   0.000132
    29  O    0.027134  -0.000087  -0.001398   0.022838  -0.029075   0.000588
    30  H    0.002116   0.000002   0.000088  -0.001344  -0.004584  -0.000030
    31  H   -0.004414   0.000052   0.000845  -0.000511   0.006820  -0.000255
    32  O    0.041413   0.000867  -0.000351   0.020614  -0.057763  -0.028797
    33  H    0.003002  -0.000021   0.000010  -0.001568   0.000116  -0.001136
    34  H   -0.020189  -0.000819   0.000018   0.004187   0.018497   0.072451
              25         26         27         28         29         30
     1  C   -0.000155   0.001666  -0.000193  -0.000225  -0.041913   0.000899
     2  H    0.000129  -0.000076   0.000030  -0.000001   0.000325  -0.000082
     3  H    0.000005  -0.000002   0.000002  -0.000000   0.000360   0.000064
     4  H    0.000089  -0.000076   0.000092  -0.000013   0.008279   0.002867
     5  C    0.001091   0.001925   0.003219  -0.000685   0.013563  -0.000666
     6  H   -0.000029  -0.000042   0.000063  -0.000000   0.001216  -0.000058
     7  H    0.000029   0.000203  -0.000028  -0.000033  -0.015212   0.000910
     8  H    0.000000  -0.000021  -0.000000  -0.000001   0.000206  -0.000048
     9  C    0.002086  -0.001199   0.000529   0.000130  -0.011582   0.001334
    10  H   -0.000000  -0.000009   0.000007   0.000000  -0.000067  -0.000002
    11  H    0.000002  -0.000002   0.000000  -0.000000  -0.000082   0.000010
    12  H   -0.000042  -0.000002   0.000001   0.000000  -0.000064  -0.000001
    13  C    0.055760  -0.026248   0.032084  -0.008520  -0.071741   0.010312
    14  H   -0.000951  -0.002760   0.006949  -0.001550   0.015007  -0.003160
    15  H   -0.003912   0.001179  -0.000790   0.000038  -0.002745  -0.000202
    16  C    0.002072   0.051944  -0.050495   0.007452   0.067268  -0.005731
    17  H   -0.000919  -0.000534   0.000182  -0.000001  -0.000255   0.000015
    18  H   -0.002358   0.000004   0.000239   0.000016   0.000369  -0.000049
    19  C   -0.092459  -0.053539   0.046271  -0.003472   0.027134   0.002116
    20  H    0.008354  -0.000198   0.000879  -0.000020  -0.000087   0.000002
    21  H   -0.011873  -0.002905  -0.001591  -0.000027  -0.001398   0.000088
    22  N    0.002017  -0.004292   0.003184   0.000723   0.022838  -0.001344
    23  C    0.374009   0.023745  -0.033206   0.004521  -0.029075  -0.004584
    24  O   -0.094167   0.002711  -0.002997   0.000132   0.000588  -0.000030
    25  O    8.257810  -0.083194   0.114430   0.004867  -0.002822  -0.000261
    26  O   -0.083194   8.325807   0.206319   0.262180   0.010014  -0.003145
    27  H    0.114430   0.206319   0.332001  -0.016381  -0.004305   0.000076
    28  H    0.004867   0.262180  -0.016381   0.448381   0.000606  -0.000637
    29  O   -0.002822   0.010014  -0.004305   0.000606   7.952706   0.335548
    30  H   -0.000261  -0.003145   0.000076  -0.000637   0.335548   0.426888
    31  H    0.001470  -0.022062   0.007441  -0.004569   0.317922  -0.021201
    32  O    0.001696  -0.000495   0.000445   0.000000  -0.000416  -0.000017
    33  H    0.000047  -0.000006   0.000001  -0.000000   0.000026  -0.000009
    34  H   -0.001464   0.000343  -0.000377   0.000001   0.000202  -0.000011
              31         32         33         34
     1  C    0.000076   0.015082  -0.004560  -0.002304
     2  H    0.000033   0.008493  -0.000062  -0.001065
     3  H   -0.000009   0.000353   0.000001  -0.000066
     4  H    0.000645   0.001218  -0.000023  -0.000191
     5  C   -0.002740   0.002542   0.000433   0.000162
     6  H   -0.000317  -0.000000   0.000005   0.000003
     7  H    0.002583  -0.000028   0.000001   0.000004
     8  H   -0.000091  -0.000063   0.000002   0.000012
     9  C    0.001559   0.001230   0.003992  -0.014111
    10  H    0.000010   0.001997  -0.000071  -0.000576
    11  H    0.000008   0.000827  -0.000069  -0.000179
    12  H    0.000007  -0.034049   0.001207   0.004645
    13  C    0.025572  -0.050607   0.001309   0.017011
    14  H    0.005289   0.002635  -0.000054  -0.000771
    15  H    0.000528   0.015625  -0.001275  -0.008293
    16  C   -0.021778  -0.067322   0.002331   0.030113
    17  H    0.000038  -0.002266  -0.000004  -0.001930
    18  H   -0.000046   0.000831  -0.000021   0.000156
    19  C   -0.004414   0.041413   0.003002  -0.020189
    20  H    0.000052   0.000867  -0.000021  -0.000819
    21  H    0.000845  -0.000351   0.000010   0.000018
    22  N   -0.000511   0.020614  -0.001568   0.004187
    23  C    0.006820  -0.057763   0.000116   0.018497
    24  O   -0.000255  -0.028797  -0.001136   0.072451
    25  O    0.001470   0.001696   0.000047  -0.001464
    26  O   -0.022062  -0.000495  -0.000006   0.000343
    27  H    0.007441   0.000445   0.000001  -0.000377
    28  H   -0.004569   0.000000  -0.000000   0.000001
    29  O    0.317922  -0.000416   0.000026   0.000202
    30  H   -0.021201  -0.000017  -0.000009  -0.000011
    31  H    0.322940   0.000052  -0.000000  -0.000032
    32  O    0.000052   8.229275   0.291177   0.229245
    33  H   -0.000000   0.291177   0.434151  -0.011944
    34  H   -0.000032   0.229245  -0.011944   0.338502
 Mulliken charges:
               1
     1  C   -0.309613
     2  H    0.220554
     3  H    0.195871
     4  H    0.198693
     5  C   -0.400875
     6  H    0.206219
     7  H    0.262181
     8  H    0.195955
     9  C   -0.417928
    10  H    0.207463
    11  H    0.194399
    12  H    0.303354
    13  C   -0.608591
    14  H    0.173126
    15  H    0.224947
    16  C   -0.149669
    17  H    0.204661
    18  H    0.167138
    19  C   -0.471068
    20  H    0.177265
    21  H    0.194635
    22  N   -0.020746
    23  C    0.311255
    24  O   -0.563802
    25  O   -0.531357
    26  O   -0.687233
    27  H    0.355916
    28  H    0.307087
    29  O   -0.592417
    30  H    0.260110
    31  H    0.384135
    32  O   -0.623446
    33  H    0.283012
    34  H    0.348770
 Sum of Mulliken charges =  -0.00000
 Mulliken charges with hydrogens summed into heavy atoms:
               1
     1  C    0.305505
     5  C    0.263479
     9  C    0.287288
    13  C   -0.210519
    16  C    0.222130
    19  C   -0.099168
    22  N   -0.020746
    23  C    0.311255
    24  O   -0.563802
    25  O   -0.531357
    26  O   -0.024230
    29  O    0.051829
    32  O    0.008336
         Mulliken charges condensed to fragments:
      1     -0.035935
      2     -0.024230
      3      0.051829
      4      0.008336
 Electronic spatial extent (au):  <R**2>=         125750.7808
 Charge=             -0.0000 electrons
 Dipole moment (field-independent basis, Debye):
    X=              0.7737    Y=              2.6567    Z=             10.4274  Tot=             10.7882
 Quadrupole moment (field-independent basis, Debye-Ang):
   XX=            -60.5331   YY=            -28.4154   ZZ=            112.1224
   XY=             30.3909   XZ=            118.4453   YZ=            147.6567
 Traceless Quadrupole moment (field-independent basis, Debye-Ang):
   XX=            -68.2577   YY=            -36.1400   ZZ=            104.3978
   XY=             30.3909   XZ=            118.4453   YZ=            147.6567
 Octapole moment (field-independent basis, Debye-Ang**2):
  XXX=          -1989.6510  YYY=          -1903.0410  ZZZ=            372.8736  XYY=           -298.4187
  XXY=           -489.9495  XXZ=            581.5523  XZZ=           1327.0862  YZZ=           1662.3119
  YYZ=           1123.2972  XYZ=           1582.1260
 Hexadecapole moment (field-independent basis, Debye-Ang**3):
 XXXX=         -40883.8559 YYYY=         -50187.1286 ZZZZ=         -12595.3247 XXXY=         -20704.2139
 XXXZ=          -7205.9979 YYYX=         -20023.1321 YYYZ=          -2589.3549 ZZZX=           6363.5643
 ZZZY=           9669.2081 XXYY=         -12564.0107 XXZZ=           7642.5753 YYZZ=          13856.4331
 XXYZ=           8703.7696 YYXZ=          11803.5487 ZZXY=          18292.8114
 N-N= 9.720199194210D+02 E-N=-3.607899325109D+03  KE= 7.072573103291D+02
 No NMR shielding tensors so no spin-rotation constants.
 Leave Link  601 at Mon Feb 20 01:00:10 2023, MaxMem=  6710886400 cpu:               3.5 elap:               0.2
 (Enter /data0/home/software/g16/l122.exe)
 CPIOFr:  IOpCl= 0 IRwI=-1 IRwCP=  731 ICalc= -1 LCPTot=      352937 Len1MO=      920657 IndFrg=      352937
 CPIOFr:  IOpCl= 0 IRwI=-1 IRwCP=  731 ICalc=  0 LCPTot=      352937 Len1MO=      920657 IndFrg=     1273594
 Counterpoise: doing calculation for fragment   1 using the basis set of the full-system, NewBq=T
 Leave Link  122 at Mon Feb 20 01:00:10 2023, MaxMem=  6710886400 cpu:               0.4 elap:               0.0
 (Enter /data0/home/software/g16/l301.exe)
 Basis read from rwf:  (5D, 7F)
 No pseudopotential information found on rwf file.
   477 basis functions,   714 primitive gaussians,   503 cartesian basis functions
    40 alpha electrons       40 beta electrons
       nuclear repulsion energy       578.7721082847 Hartrees.
 IExCor= 4336 DFT=T Ex+Corr=M062X ExCW=0 ScaHFX=  0.540000
 ScaDFX=  1.000000  1.000000  1.000000  1.000000 ScalE2=  1.000000  1.000000
 IRadAn=      5 IRanWt=     -1 IRanGd=            0 ICorTp=0 IEmpDi=131
 NAtoms=   34 NActive=   34 NUniq=   34 SFac= 1.00D+00 NAtFMM=   60 NAOKFM=F Big=F
 Integral buffers will be    131072 words long.
 Raffenetti 2 integral format.
 Two-electron integral symmetry is turned off.
 R6Disp:  Grimme-D3 Dispersion energy=       -0.0010227323 Hartrees.
 Nuclear repulsion after empirical dispersion term =      578.7710855524 Hartrees.
 No density basis found on file   718.
 Leave Link  301 at Mon Feb 20 01:00:10 2023, MaxMem=  6710886400 cpu:               1.3 elap:               0.1
 (Enter /data0/home/software/g16/l302.exe)
 NPDir=0 NMtPBC=     1 NCelOv=     1 NCel=       1 NClECP=     1 NCelD=      1
         NCelK=      1 NCelE2=     1 NClLst=     1 CellRange=     0.0.
 One-electron integrals computed using PRISM.
 NBasis=   477 RedAO= T EigKep=  5.74D-06  NBF=   477
 NBsUse=   477 1.00D-06 EigRej= -1.00D+00 NBFU=   477
 Precomputing XC quadrature grid using
 IXCGrd= 4 IRadAn=           5 IRanWt=          -1 IRanGd=           0 AccXCQ= 0.00D+00.
 Generated NRdTot=       0 NPtTot=           0 NUsed=           0 NTot=          32
 NSgBfM=   503   503   503   503   503 MxSgAt=    34 MxSgA2=    34.
 Leave Link  302 at Mon Feb 20 01:00:11 2023, MaxMem=  6710886400 cpu:              11.3 elap:               0.5
 (Enter /data0/home/software/g16/l303.exe)
 DipDrv:  MaxL=1.
 Leave Link  303 at Mon Feb 20 01:00:11 2023, MaxMem=  6710886400 cpu:               1.2 elap:               0.1
 (Enter /data0/home/software/g16/l401.exe)
 ExpMin= 4.38D-02 ExpMax= 8.59D+03 ExpMxC= 1.30D+03 IAcc=3 IRadAn=         5 AccDes= 0.00D+00
 Harris functional with IExCor= 1009 and IRadAn=       5 diagonalized for initial guess.
 HarFok:  IExCor= 1009 AccDes= 0.00D+00 IRadAn=         5 IDoV= 1 UseB2=F ITyADJ=14
 ICtDFT=  3500011 ScaDFX=  1.000000  1.000000  1.000000  1.000000
 FoFCou: FMM=F IPFlag=           0 FMFlag=      100000 FMFlg1=           0
         NFxFlg=           0 DoJE=T BraDBF=F KetDBF=T FulRan=T
         wScrn=  0.000000 ICntrl=       500 IOpCl=  0 I1Cent=   200000004 NGrid=           0
         NMat0=    1 NMatS0=      1 NMatT0=    0 NMatD0=    1 NMtDS0=    0 NMtDT0=    0
 Symmetry not used in FoFCou.
 Harris En= -480.726992446166    
 JPrj=0 DoOrth=F DoCkMO=F.
 Leave Link  401 at Mon Feb 20 01:00:13 2023, MaxMem=  6710886400 cpu:              49.5 elap:               2.1
 (Enter /data0/home/software/g16/l502.exe)
 Two-electron integral symmetry not used.
 Closed shell SCF:
 Using DIIS extrapolation, IDIIS=  1040.
 NGot=  6710886400 LenX=  6710364569 LenY=  6710111057
 Requested convergence on RMS density matrix=1.00D-08 within 128 cycles.
 Requested convergence on MAX density matrix=1.00D-06.
 Requested convergence on             energy=1.00D-06.
 No special actions if energy rises.
 Fock matrices will be formed incrementally for  20 cycles.

 Cycle   1  Pass 1  IDiag  1:
 FoFJK:  IHMeth= 1 ICntrl=       0 DoSepK=F KAlg= 0 I1Cent=           0 FoldK=F
 IRaf= 900000000 NMat=       1 IRICut=       1 DoRegI=T DoRafI=F ISym2E= 0 IDoP0=0 IntGTp=1.
 FoFCou: FMM=F IPFlag=           0 FMFlag=      100000 FMFlg1=           0
         NFxFlg=           0 DoJE=F BraDBF=F KetDBF=F FulRan=T
         wScrn=  0.000000 ICntrl=         0 IOpCl=  0 I1Cent=           0 NGrid=           0
         NMat0=    1 NMatS0=      1 NMatT0=    0 NMatD0=    1 NMtDS0=    0 NMtDT0=    0
 Symmetry not used in FoFCou.
 E= -480.462697349227    
 DIIS: error= 1.89D-02 at cycle   1 NSaved=   1.
 NSaved= 1 IEnMin= 1 EnMin= -480.462697349227     IErMin= 1 ErrMin= 1.89D-02
 ErrMax= 1.89D-02  0.00D+00 EMaxC= 1.00D-01 BMatC= 4.97D-01 BMatP= 4.97D-01
 IDIUse=3 WtCom= 8.11D-01 WtEn= 1.89D-01
 Coeff-Com:  0.100D+01
 Coeff-En:   0.100D+01
 Coeff:      0.100D+01
 Gap=     0.301 Goal=   None    Shift=    0.000
 GapD=    0.301 DampG=1.000 DampE=0.500 DampFc=0.5000 IDamp=-1.
 Damping current iteration by 5.00D-01
 RMSDP=1.06D-01 MaxDP=9.65D+00              OVMax= 9.80D-01

 Cycle   2  Pass 1  IDiag  1:
 RMSU=  5.23D-02    CP:  1.81D+00
 E= -480.287298583341     Delta-E=        0.175398765886 Rises=F Damp=T
 DIIS: error= 1.27D-02 at cycle   2 NSaved=   2.
 NSaved= 2 IEnMin= 1 EnMin= -480.462697349227     IErMin= 2 ErrMin= 1.27D-02
 ErrMax= 1.27D-02  0.00D+00 EMaxC= 1.00D-01 BMatC= 1.21D-01 BMatP= 4.97D-01
 IDIUse=3 WtCom= 8.73D-01 WtEn= 1.27D-01
 Coeff-Com:  0.245D+00 0.755D+00
 Coeff-En:   0.658D+00 0.342D+00
 Coeff:      0.297D+00 0.703D+00
 Gap=    -0.302 Goal=   None    Shift=    0.000
 RMSDP=5.22D-02 MaxDP=4.66D+00 DE= 1.75D-01 OVMax= 8.06D-01

 Cycle   3  Pass 1  IDiag  1:
 RMSU=  3.03D-03    CP:  9.47D-01  1.62D-02
 E= -480.724029312080     Delta-E=       -0.436730728739 Rises=F Damp=F
 DIIS: error= 1.08D-02 at cycle   3 NSaved=   3.
 NSaved= 3 IEnMin= 3 EnMin= -480.724029312080     IErMin= 3 ErrMin= 1.08D-02
 ErrMax= 1.08D-02  0.00D+00 EMaxC= 1.00D-01 BMatC= 1.25D-01 BMatP= 1.21D-01
 IDIUse=3 WtCom= 8.92D-01 WtEn= 1.08D-01
 Coeff-Com:  0.315D-01 0.498D+00 0.470D+00
 Coeff-En:   0.000D+00 0.000D+00 0.100D+01
 Coeff:      0.281D-01 0.444D+00 0.527D+00
 Gap=     0.259 Goal=   None    Shift=    0.000
 RMSDP=1.24D-03 MaxDP=1.02D-01 DE=-4.37D-01 OVMax= 7.52D-02

 Cycle   4  Pass 1  IDiag  1:
 RMSU=  1.17D-03    CP:  9.45D-01  2.08D-02  1.11D+00
 E= -480.824396521809     Delta-E=       -0.100367209729 Rises=F Damp=F
 DIIS: error= 4.06D-03 at cycle   4 NSaved=   4.
 NSaved= 4 IEnMin= 4 EnMin= -480.824396521809     IErMin= 4 ErrMin= 4.06D-03
 ErrMax= 4.06D-03  0.00D+00 EMaxC= 1.00D-01 BMatC= 1.47D-02 BMatP= 1.21D-01
 IDIUse=3 WtCom= 9.59D-01 WtEn= 4.06D-02
 Coeff-Com: -0.682D-01 0.233D+00 0.144D+00 0.691D+00
 Coeff-En:   0.000D+00 0.000D+00 0.000D+00 0.100D+01
 Coeff:     -0.654D-01 0.224D+00 0.139D+00 0.703D+00
 Gap=     0.211 Goal=   None    Shift=    0.000
 RMSDP=8.22D-04 MaxDP=1.30D-01 DE=-1.00D-01 OVMax= 2.90D-02

 Cycle   5  Pass 1  IDiag  1:
 RMSU=  5.80D-04    CP:  9.63D-01  2.52D-02  1.22D+00  1.33D+00
 E= -480.835030948542     Delta-E=       -0.010634426733 Rises=F Damp=F
 DIIS: error= 2.60D-03 at cycle   5 NSaved=   5.
 NSaved= 5 IEnMin= 5 EnMin= -480.835030948542     IErMin= 5 ErrMin= 2.60D-03
 ErrMax= 2.60D-03  0.00D+00 EMaxC= 1.00D-01 BMatC= 6.44D-03 BMatP= 1.47D-02
 IDIUse=3 WtCom= 9.74D-01 WtEn= 2.60D-02
 Coeff-Com: -0.551D-01 0.115D+00-0.406D-01 0.371D+00 0.610D+00
 Coeff-En:   0.000D+00 0.000D+00 0.000D+00 0.000D+00 0.100D+01
 Coeff:     -0.537D-01 0.112D+00-0.396D-01 0.362D+00 0.620D+00
 Gap=     0.200 Goal=   None    Shift=    0.000
 RMSDP=4.56D-04 MaxDP=7.69D-02 DE=-1.06D-02 OVMax= 2.16D-02

 Cycle   6  Pass 1  IDiag  1:
 RMSU=  2.33D-04    CP:  9.74D-01  2.69D-02  1.27D+00  1.58D+00  1.26D+00
 E= -480.840051977413     Delta-E=       -0.005021028871 Rises=F Damp=F
 DIIS: error= 1.34D-03 at cycle   6 NSaved=   6.
 NSaved= 6 IEnMin= 6 EnMin= -480.840051977413     IErMin= 6 ErrMin= 1.34D-03
 ErrMax= 1.34D-03  0.00D+00 EMaxC= 1.00D-01 BMatC= 1.07D-03 BMatP= 6.44D-03
 IDIUse=3 WtCom= 9.87D-01 WtEn= 1.34D-02
 Coeff-Com: -0.107D-01 0.200D-01-0.803D-01-0.715D-01 0.214D+00 0.928D+00
 Coeff-En:   0.000D+00 0.000D+00 0.000D+00 0.000D+00 0.000D+00 0.100D+01
 Coeff:     -0.105D-01 0.197D-01-0.792D-01-0.706D-01 0.211D+00 0.929D+00
 Gap=     0.191 Goal=   None    Shift=    0.000
 RMSDP=4.44D-04 MaxDP=7.38D-02 DE=-5.02D-03 OVMax= 9.15D-03

 Cycle   7  Pass 1  IDiag  1:
 RMSU=  1.13D-04    CP:  9.87D-01  2.92D-02  1.32D+00  1.81D+00  1.64D+00
                    CP:  1.49D+00
 E= -480.841229286853     Delta-E=       -0.001177309440 Rises=F Damp=F
 DIIS: error= 2.78D-04 at cycle   7 NSaved=   7.
 NSaved= 7 IEnMin= 7 EnMin= -480.841229286853     IErMin= 7 ErrMin= 2.78D-04
 ErrMax= 2.78D-04  0.00D+00 EMaxC= 1.00D-01 BMatC= 6.54D-05 BMatP= 1.07D-03
 IDIUse=3 WtCom= 9.97D-01 WtEn= 2.78D-03
 Coeff-Com:  0.900D-03 0.154D-02-0.331D-01-0.775D-01 0.222D-01 0.428D+00
 Coeff-Com:  0.658D+00
 Coeff-En:   0.000D+00 0.000D+00 0.000D+00 0.000D+00 0.000D+00 0.000D+00
 Coeff-En:   0.100D+01
 Coeff:      0.898D-03 0.153D-02-0.330D-01-0.773D-01 0.221D-01 0.426D+00
 Coeff:      0.659D+00
 Gap=     0.191 Goal=   None    Shift=    0.000
 RMSDP=1.01D-04 MaxDP=2.17D-02 DE=-1.18D-03 OVMax= 2.49D-03

 Cycle   8  Pass 1  IDiag  1:
 RMSU=  4.34D-05    CP:  9.90D-01  2.97D-02  1.33D+00  1.85D+00  1.73D+00
                    CP:  1.63D+00  1.04D+00
 E= -480.841297210403     Delta-E=       -0.000067923550 Rises=F Damp=F
 DIIS: error= 9.26D-05 at cycle   8 NSaved=   8.
 NSaved= 8 IEnMin= 8 EnMin= -480.841297210403     IErMin= 8 ErrMin= 9.26D-05
 ErrMax= 9.26D-05  0.00D+00 EMaxC= 1.00D-01 BMatC= 5.34D-06 BMatP= 6.54D-05
 IDIUse=1 WtCom= 1.00D+00 WtEn= 0.00D+00
 Coeff-Com:  0.952D-03-0.108D-04-0.646D-03-0.132D-01-0.143D-01 0.162D-01
 Coeff-Com:  0.256D+00 0.755D+00
 Coeff:      0.952D-03-0.108D-04-0.646D-03-0.132D-01-0.143D-01 0.162D-01
 Coeff:      0.256D+00 0.755D+00
 Gap=     0.191 Goal=   None    Shift=    0.000
 RMSDP=2.15D-05 MaxDP=3.18D-03 DE=-6.79D-05 OVMax= 5.56D-04

 Cycle   9  Pass 1  IDiag  1:
 RMSU=  1.71D-05    CP:  9.89D-01  2.97D-02  1.33D+00  1.85D+00  1.73D+00
                    CP:  1.63D+00  1.11D+00  1.06D+00
 E= -480.841302269191     Delta-E=       -0.000005058787 Rises=F Damp=F
 DIIS: error= 2.39D-05 at cycle   9 NSaved=   9.
 NSaved= 9 IEnMin= 9 EnMin= -480.841302269191     IErMin= 9 ErrMin= 2.39D-05
 ErrMax= 2.39D-05  0.00D+00 EMaxC= 1.00D-01 BMatC= 2.63D-07 BMatP= 5.34D-06
 IDIUse=1 WtCom= 1.00D+00 WtEn= 0.00D+00
 Coeff-Com: -0.890D-04 0.405D-03 0.197D-02 0.315D-02-0.110D-02-0.261D-01
 Coeff-Com:  0.691D-03 0.165D+00 0.856D+00
 Coeff:     -0.890D-04 0.405D-03 0.197D-02 0.315D-02-0.110D-02-0.261D-01
 Coeff:      0.691D-03 0.165D+00 0.856D+00
 Gap=     0.191 Goal=   None    Shift=    0.000
 RMSDP=5.33D-06 MaxDP=4.18D-04 DE=-5.06D-06 OVMax= 1.75D-04

 Cycle  10  Pass 1  IDiag  1:
 RMSU=  3.83D-06    CP:  9.89D-01  2.97D-02  1.33D+00  1.85D+00  1.73D+00
                    CP:  1.63D+00  1.13D+00  1.08D+00  1.07D+00
 E= -480.841302543959     Delta-E=       -0.000000274769 Rises=F Damp=F
 DIIS: error= 7.56D-06 at cycle  10 NSaved=  10.
 NSaved=10 IEnMin=10 EnMin= -480.841302543959     IErMin=10 ErrMin= 7.56D-06
 ErrMax= 7.56D-06  0.00D+00 EMaxC= 1.00D-01 BMatC= 7.36D-08 BMatP= 2.63D-07
 IDIUse=1 WtCom= 1.00D+00 WtEn= 0.00D+00
 Coeff-Com: -0.126D-03 0.875D-04 0.828D-03 0.235D-02 0.100D-02-0.147D-01
 Coeff-Com: -0.250D-01-0.603D-03 0.372D+00 0.665D+00
 Coeff:     -0.126D-03 0.875D-04 0.828D-03 0.235D-02 0.100D-02-0.147D-01
 Coeff:     -0.250D-01-0.603D-03 0.372D+00 0.665D+00
 Gap=     0.191 Goal=   None    Shift=    0.000
 RMSDP=2.62D-06 MaxDP=2.33D-04 DE=-2.75D-07 OVMax= 9.60D-05

 Cycle  11  Pass 1  IDiag  1:
 RMSU=  8.71D-07    CP:  9.89D-01  2.97D-02  1.33D+00  1.85D+00  1.73D+00
                    CP:  1.63D+00  1.14D+00  1.10D+00  1.14D+00  1.13D+00
 E= -480.841302629883     Delta-E=       -0.000000085924 Rises=F Damp=F
 DIIS: error= 1.94D-06 at cycle  11 NSaved=  11.
 NSaved=11 IEnMin=11 EnMin= -480.841302629883     IErMin=11 ErrMin= 1.94D-06
 ErrMax= 1.94D-06  0.00D+00 EMaxC= 1.00D-01 BMatC= 4.10D-09 BMatP= 7.36D-08
 IDIUse=1 WtCom= 1.00D+00 WtEn= 0.00D+00
 Coeff-Com: -0.298D-04 0.372D-04 0.122D-04 0.150D-03 0.527D-03-0.132D-02
 Coeff-Com: -0.483D-02-0.172D-01-0.369D-02 0.137D+00 0.890D+00
 Coeff:     -0.298D-04 0.372D-04 0.122D-04 0.150D-03 0.527D-03-0.132D-02
 Coeff:     -0.483D-02-0.172D-01-0.369D-02 0.137D+00 0.890D+00
 Gap=     0.191 Goal=   None    Shift=    0.000
 RMSDP=7.82D-07 MaxDP=9.59D-05 DE=-8.59D-08 OVMax= 3.86D-05

 Cycle  12  Pass 1  IDiag  1:
 RMSU=  3.04D-07    CP:  9.89D-01  2.97D-02  1.33D+00  1.85D+00  1.73D+00
                    CP:  1.63D+00  1.15D+00  1.10D+00  1.16D+00  1.22D+00
                    CP:  1.30D+00
 E= -480.841302635917     Delta-E=       -0.000000006034 Rises=F Damp=F
 DIIS: error= 5.82D-07 at cycle  12 NSaved=  12.
 NSaved=12 IEnMin=12 EnMin= -480.841302635917     IErMin=12 ErrMin= 5.82D-07
 ErrMax= 5.82D-07  0.00D+00 EMaxC= 1.00D-01 BMatC= 5.00D-10 BMatP= 4.10D-09
 IDIUse=1 WtCom= 1.00D+00 WtEn= 0.00D+00
 Coeff-Com:  0.542D-05-0.202D-05-0.708D-04-0.201D-03 0.807D-04 0.773D-03
 Coeff-Com:  0.108D-02-0.561D-02-0.400D-01-0.333D-01 0.270D+00 0.807D+00
 Coeff:      0.542D-05-0.202D-05-0.708D-04-0.201D-03 0.807D-04 0.773D-03
 Coeff:      0.108D-02-0.561D-02-0.400D-01-0.333D-01 0.270D+00 0.807D+00
 Gap=     0.191 Goal=   None    Shift=    0.000
 RMSDP=3.45D-07 MaxDP=3.10D-05 DE=-6.03D-09 OVMax= 1.51D-05

 Cycle  13  Pass 1  IDiag  1:
 RMSU=  9.47D-08    CP:  9.89D-01  2.97D-02  1.33D+00  1.85D+00  1.73D+00
                    CP:  1.63D+00  1.15D+00  1.10D+00  1.17D+00  1.26D+00
                    CP:  1.41D+00  1.09D+00
 E= -480.841302636673     Delta-E=       -0.000000000756 Rises=F Damp=F
 DIIS: error= 2.24D-07 at cycle  13 NSaved=  13.
 NSaved=13 IEnMin=13 EnMin= -480.841302636673     IErMin=13 ErrMin= 2.24D-07
 ErrMax= 2.24D-07  0.00D+00 EMaxC= 1.00D-01 BMatC= 4.73D-11 BMatP= 5.00D-10
 IDIUse=1 WtCom= 1.00D+00 WtEn= 0.00D+00
 Coeff-Com:  0.315D-05-0.692D-06-0.202D-04-0.673D-04 0.268D-05 0.336D-03
 Coeff-Com:  0.817D-03 0.135D-04-0.106D-01-0.226D-01-0.146D-01 0.236D+00
 Coeff-Com:  0.810D+00
 Coeff:      0.315D-05-0.692D-06-0.202D-04-0.673D-04 0.268D-05 0.336D-03
 Coeff:      0.817D-03 0.135D-04-0.106D-01-0.226D-01-0.146D-01 0.236D+00
 Coeff:      0.810D+00
 Gap=     0.191 Goal=   None    Shift=    0.000
 RMSDP=7.90D-08 MaxDP=7.85D-06 DE=-7.56D-10 OVMax= 4.24D-06

 Cycle  14  Pass 1  IDiag  1:
 RMSU=  3.56D-08    CP:  9.89D-01  2.97D-02  1.33D+00  1.85D+00  1.73D+00
                    CP:  1.63D+00  1.15D+00  1.10D+00  1.17D+00  1.27D+00
                    CP:  1.42D+00  1.13D+00  1.14D+00
 E= -480.841302636732     Delta-E=       -0.000000000059 Rises=F Damp=F
 DIIS: error= 6.08D-08 at cycle  14 NSaved=  14.
 NSaved=14 IEnMin=14 EnMin= -480.841302636732     IErMin=14 ErrMin= 6.08D-08
 ErrMax= 6.08D-08  0.00D+00 EMaxC= 1.00D-01 BMatC= 5.17D-12 BMatP= 4.73D-11
 IDIUse=1 WtCom= 1.00D+00 WtEn= 0.00D+00
 Coeff-Com:  0.104D-06-0.159D-07 0.553D-05 0.119D-04-0.571D-05-0.363D-04
 Coeff-Com:  0.973D-04 0.795D-03 0.264D-02-0.159D-02-0.423D-01-0.416D-01
 Coeff-Com:  0.237D+00 0.845D+00
 Coeff:      0.104D-06-0.159D-07 0.553D-05 0.119D-04-0.571D-05-0.363D-04
 Coeff:      0.973D-04 0.795D-03 0.264D-02-0.159D-02-0.423D-01-0.416D-01
 Coeff:      0.237D+00 0.845D+00
 Gap=     0.191 Goal=   None    Shift=    0.000
 RMSDP=2.40D-08 MaxDP=3.35D-06 DE=-5.89D-11 OVMax= 1.63D-06

 Cycle  15  Pass 1  IDiag  1:
 RMSU=  1.20D-08    CP:  9.89D-01  2.97D-02  1.33D+00  1.85D+00  1.73D+00
                    CP:  1.63D+00  1.15D+00  1.10D+00  1.17D+00  1.26D+00
                    CP:  1.42D+00  1.15D+00  1.20D+00  1.16D+00
 E= -480.841302636749     Delta-E=       -0.000000000018 Rises=F Damp=F
[...]
    23  C    0.000000
    24  O    0.000000
    25  O    0.000000
    26  O    0.000000
    27  H    0.000000
    28  H    0.000000
    29  O   -0.556006
    30  H    0.277170
    31  H    0.278835
    32  O    0.000000
    33  H    0.000000
    34  H    0.000000
 Sum of Mulliken charges =  -0.00000
 Mulliken charges with hydrogens summed into heavy atoms:
               1
     1  C    0.000000
     5  C    0.000000
     9  C    0.000000
    13  C    0.000000
    16  C    0.000000
    19  C    0.000000
    22  N    0.000000
    23  C    0.000000
    24  O    0.000000
    25  O    0.000000
    26  O    0.000000
    29  O   -0.000000
    32  O    0.000000
         Mulliken charges condensed to fragments:
      1      0.000000
      2      0.000000
      3     -0.000000
      4      0.000000
 Electronic spatial extent (au):  <R**2>=          10358.6137
 Charge=              0.0000 electrons
 Dipole moment (field-independent basis, Debye):
    X=              0.3251    Y=             -0.2800    Z=             -2.0793  Tot=              2.1231
 Quadrupole moment (field-independent basis, Debye-Ang):
   XX=              1.9890   YY=            -12.2476   ZZ=            -52.7820
   XY=              0.0304   XZ=            -16.6710   YZ=            -19.7735
 Traceless Quadrupole moment (field-independent basis, Debye-Ang):
   XX=             23.0025   YY=              8.7659   ZZ=            -31.7685
   XY=              0.0304   XZ=            -16.6710   YZ=            -19.7735
 Octapole moment (field-independent basis, Debye-Ang**2):
  XXX=            -35.9753  YYY=           -242.8015  ZZZ=           -991.8693  XYY=            -97.1841
  XXY=             -8.1745  XXZ=           -177.2866  XZZ=           -475.9099  YZZ=           -458.2215
  YYZ=           -270.4194  XYZ=           -162.2314
 Hexadecapole moment (field-independent basis, Debye-Ang**3):
 XXXX=          -1338.7993 YYYY=          -3647.8887 ZZZZ=         -16402.5597 XXXY=           -518.9839
 XXXZ=          -2375.2309 YYYX=          -2197.7930 YYYZ=          -3787.6542 ZZZX=          -9268.6968
 ZZZY=          -8355.6572 XXYY=          -1021.3593 XXZZ=          -4836.1329 YYZZ=          -4933.2942
 XXYZ=          -1689.3225 YYXZ=          -2390.9106 ZZXY=          -4139.0798
 N-N= 9.087865915454D+00 E-N=-1.990242290032D+02  KE= 7.618987994458D+01
 No NMR shielding tensors so no spin-rotation constants.
 Leave Link  601 at Mon Feb 20 01:05:28 2023, MaxMem=  6710886400 cpu:               1.8 elap:               0.1
 (Enter /data0/home/software/g16/l122.exe)
 CPIOFr:  IOpCl= 0 IRwI=-1 IRwCP=  731 ICalc=  7 LCPTot=      352937 Len1MO=      920657 IndFrg=     7718193
 Counterpoise: doing calculation for fragment   4 using the basis set of the fragment.
 Leave Link  122 at Mon Feb 20 01:05:28 2023, MaxMem=  6710886400 cpu:               0.2 elap:               0.0
 (Enter /data0/home/software/g16/l301.exe)
 Basis read from rwf:  (5D, 7F)
 No pseudopotential information found on rwf file.
    39 basis functions,    58 primitive gaussians,    41 cartesian basis functions
     5 alpha electrons        5 beta electrons
       nuclear repulsion energy         9.0693919810 Hartrees.
 IExCor= 4336 DFT=T Ex+Corr=M062X ExCW=0 ScaHFX=  0.540000
 ScaDFX=  1.000000  1.000000  1.000000  1.000000 ScalE2=  1.000000  1.000000
 IRadAn=      5 IRanWt=     -1 IRanGd=            0 ICorTp=0 IEmpDi=131
 NAtoms=   34 NActive=    3 NUniq=    3 SFac= 1.00D+00 NAtFMM=   60 NAOKFM=F Big=F
 Integral buffers will be    131072 words long.
 Raffenetti 2 integral format.
 Two-electron integral symmetry is turned off.
 R6Disp:  Grimme-D3 Dispersion energy=       -0.0000000074 Hartrees.
 Nuclear repulsion after empirical dispersion term =        9.0693919736 Hartrees.
 No density basis found on file   718.
 Leave Link  301 at Mon Feb 20 01:05:28 2023, MaxMem=  6710886400 cpu:               1.2 elap:               0.1
 (Enter /data0/home/software/g16/l302.exe)
 NPDir=0 NMtPBC=     1 NCelOv=     1 NCel=       1 NClECP=     1 NCelD=      1
         NCelK=      1 NCelE2=     1 NClLst=     1 CellRange=     0.0.
 One-electron integrals computed using PRISM.
 NBasis=    39 RedAO= T EigKep=  3.03D-03  NBF=    39
 NBsUse=    39 1.00D-06 EigRej= -1.00D+00 NBFU=    39
 Precomputing XC quadrature grid using
 IXCGrd= 4 IRadAn=           5 IRanWt=          -1 IRanGd=           0 AccXCQ= 0.00D+00.
 Generated NRdTot=       0 NPtTot=           0 NUsed=           0 NTot=          32
 NSgBfM=    41    41    41    41    41 MxSgAt=     3 MxSgA2=     3.
 Leave Link  302 at Mon Feb 20 01:05:28 2023, MaxMem=  6710886400 cpu:               2.2 elap:               0.1
 (Enter /data0/home/software/g16/l303.exe)
 DipDrv:  MaxL=1.
 Leave Link  303 at Mon Feb 20 01:05:28 2023, MaxMem=  6710886400 cpu:               0.4 elap:               0.0
 (Enter /data0/home/software/g16/l401.exe)
 ExpMin= 8.45D-02 ExpMax= 8.59D+03 ExpMxC= 1.30D+03 IAcc=3 IRadAn=         5 AccDes= 0.00D+00
 Harris functional with IExCor= 1009 and IRadAn=       5 diagonalized for initial guess.
 HarFok:  IExCor= 1009 AccDes= 0.00D+00 IRadAn=         5 IDoV= 1 UseB2=F ITyADJ=14
 ICtDFT=  3500011 ScaDFX=  1.000000  1.000000  1.000000  1.000000
 FoFCou: FMM=F IPFlag=           0 FMFlag=      100000 FMFlg1=           0
         NFxFlg=           0 DoJE=T BraDBF=F KetDBF=T FulRan=T
         wScrn=  0.000000 ICntrl=       500 IOpCl=  0 I1Cent=   200000004 NGrid=           0
         NMat0=    1 NMatS0=      1 NMatT0=    0 NMatD0=    1 NMtDS0=    0 NMtDT0=    0
 Symmetry not used in FoFCou.
 Harris En= -76.4159228934460    
 JPrj=0 DoOrth=F DoCkMO=F.
 Leave Link  401 at Mon Feb 20 01:05:28 2023, MaxMem=  6710886400 cpu:               2.8 elap:               0.1
 (Enter /data0/home/software/g16/l502.exe)
 Keep R1 ints in memory in canonical form, NReq=21043191.
 FoFCou: FMM=F IPFlag=           0 FMFlag=           0 FMFlg1=           0
         NFxFlg=           0 DoJE=F BraDBF=F KetDBF=F FulRan=T
         wScrn=  0.000000 ICntrl=       600 IOpCl=  0 I1Cent=           0 NGrid=           0
         NMat0=    1 NMatS0=    780 NMatT0=    0 NMatD0=    1 NMtDS0=    0 NMtDT0=    0
 Symmetry not used in FoFCou.
 Two-electron integral symmetry not used.
 Closed shell SCF:
 Using DIIS extrapolation, IDIIS=  1040.
 NGot=  6710886400 LenX=  6710576033 LenY=  6710573911
 Requested convergence on RMS density matrix=1.00D-08 within 128 cycles.
 Requested convergence on MAX density matrix=1.00D-06.
 Requested convergence on             energy=1.00D-06.
 No special actions if energy rises.
 Integral accuracy reduced to 1.0D-05 until final iterations.

 Cycle   1  Pass 0  IDiag  1:
 E= -76.3466284381311    
 DIIS: error= 6.96D-02 at cycle   1 NSaved=   1.
 NSaved= 1 IEnMin= 1 EnMin= -76.3466284381311     IErMin= 1 ErrMin= 6.96D-02
 ErrMax= 6.96D-02  0.00D+00 EMaxC= 1.00D-01 BMatC= 1.20D-01 BMatP= 1.20D-01
 IDIUse=3 WtCom= 3.04D-01 WtEn= 6.96D-01
 Coeff-Com:  0.100D+01
 Coeff-En:   0.100D+01
 Coeff:      0.100D+01
 Gap=     0.324 Goal=   None    Shift=    0.000
 GapD=    0.324 DampG=1.000 DampE=0.500 DampFc=0.5000 IDamp=-1.
 Damping current iteration by 5.00D-01
 RMSDP=7.97D-03 MaxDP=1.00D-01              OVMax= 1.67D-01

 Cycle   2  Pass 0  IDiag  1:
 E= -76.3777059360491     Delta-E=       -0.031077497918 Rises=F Damp=T
 DIIS: error= 1.12D-02 at cycle   2 NSaved=   2.
 NSaved= 2 IEnMin= 2 EnMin= -76.3777059360491     IErMin= 2 ErrMin= 1.12D-02
 ErrMax= 1.12D-02  0.00D+00 EMaxC= 1.00D-01 BMatC= 4.88D-03 BMatP= 1.20D-01
 IDIUse=3 WtCom= 8.88D-01 WtEn= 1.12D-01
 Coeff-Com:  0.844D-01 0.916D+00
 Coeff-En:   0.191D+00 0.809D+00
 Coeff:      0.963D-01 0.904D+00
 Gap=     0.456 Goal=   None    Shift=    0.000
 RMSDP=9.55D-04 MaxDP=1.42D-02 DE=-3.11D-02 OVMax= 1.00D-01

 Cycle   3  Pass 0  IDiag  1:
 E= -76.4214417913359     Delta-E=       -0.043735855287 Rises=F Damp=F
 DIIS: error= 2.17D-03 at cycle   3 NSaved=   3.
 NSaved= 3 IEnMin= 3 EnMin= -76.4214417913359     IErMin= 3 ErrMin= 2.17D-03
 ErrMax= 2.17D-03  0.00D+00 EMaxC= 1.00D-01 BMatC= 9.16D-05 BMatP= 4.88D-03
 IDIUse=3 WtCom= 9.78D-01 WtEn= 2.17D-02
 Coeff-Com: -0.200D-01 0.397D-01 0.980D+00
 Coeff-En:   0.000D+00 0.000D+00 0.100D+01
 Coeff:     -0.196D-01 0.389D-01 0.981D+00
 Gap=     0.461 Goal=   None    Shift=    0.000
 RMSDP=1.15D-04 MaxDP=1.03D-03 DE=-4.37D-02 OVMax= 3.34D-03

 Cycle   4  Pass 0  IDiag  1:
 E= -76.4215200402303     Delta-E=       -0.000078248894 Rises=F Damp=F
 DIIS: error= 4.18D-04 at cycle   4 NSaved=   4.
 NSaved= 4 IEnMin= 4 EnMin= -76.4215200402303     IErMin= 4 ErrMin= 4.18D-04
 ErrMax= 4.18D-04  0.00D+00 EMaxC= 1.00D-01 BMatC= 3.32D-06 BMatP= 9.16D-05
 IDIUse=3 WtCom= 9.96D-01 WtEn= 4.18D-03
 Coeff-Com: -0.193D-02-0.225D-02 0.163D+00 0.842D+00
 Coeff-En:   0.000D+00 0.000D+00 0.000D+00 0.100D+01
 Coeff:     -0.192D-02-0.224D-02 0.162D+00 0.842D+00
 Gap=     0.461 Goal=   None    Shift=    0.000
 RMSDP=2.23D-05 MaxDP=3.56D-04 DE=-7.82D-05 OVMax= 5.43D-04

 Cycle   5  Pass 0  IDiag  1:
 E= -76.4215221018857     Delta-E=       -0.000002061655 Rises=F Damp=F
 DIIS: error= 9.00D-05 at cycle   5 NSaved=   5.
 NSaved= 5 IEnMin= 5 EnMin= -76.4215221018857     IErMin= 5 ErrMin= 9.00D-05
 ErrMax= 9.00D-05  0.00D+00 EMaxC= 1.00D-01 BMatC= 8.40D-08 BMatP= 3.32D-06
 IDIUse=1 WtCom= 1.00D+00 WtEn= 0.00D+00
 Coeff-Com:  0.119D-02-0.182D-02-0.371D-01-0.653D-01 0.110D+01
 Coeff:      0.119D-02-0.182D-02-0.371D-01-0.653D-01 0.110D+01
 Gap=     0.461 Goal=   None    Shift=    0.000
 RMSDP=9.09D-06 MaxDP=1.02D-04 DE=-2.06D-06 OVMax= 2.06D-04

 Initial convergence to 1.0D-05 achieved.  Increase integral accuracy.
 Cycle   6  Pass 1  IDiag  1:
 E= -76.4215167370217     Delta-E=        0.000005364864 Rises=F Damp=F
 DIIS: error= 1.12D-05 at cycle   1 NSaved=   1.
 NSaved= 1 IEnMin= 1 EnMin= -76.4215167370217     IErMin= 1 ErrMin= 1.12D-05
 ErrMax= 1.12D-05  0.00D+00 EMaxC= 1.00D-01 BMatC= 1.18D-08 BMatP= 1.18D-08
 IDIUse=1 WtCom= 1.00D+00 WtEn= 0.00D+00
 Coeff-Com:  0.100D+01
 Coeff:      0.100D+01
 Gap=     0.461 Goal=   None    Shift=    0.000
 RMSDP=9.09D-06 MaxDP=1.02D-04 DE= 5.36D-06 OVMax= 4.77D-05

 Cycle   7  Pass 1  IDiag  1:
 E= -76.4215167462972     Delta-E=       -0.000000009275 Rises=F Damp=F
 DIIS: error= 9.73D-06 at cycle   2 NSaved=   2.
 NSaved= 2 IEnMin= 2 EnMin= -76.4215167462972     IErMin= 2 ErrMin= 9.73D-06
 ErrMax= 9.73D-06  0.00D+00 EMaxC= 1.00D-01 BMatC= 1.45D-09 BMatP= 1.18D-08
 IDIUse=1 WtCom= 1.00D+00 WtEn= 0.00D+00
 Coeff-Com:  0.102D+00 0.898D+00
 Coeff:      0.102D+00 0.898D+00
 Gap=     0.461 Goal=   None    Shift=    0.000
 RMSDP=7.92D-07 MaxDP=1.33D-05 DE=-9.28D-09 OVMax= 2.07D-05

 Cycle   8  Pass 1  IDiag  1:
 E= -76.4215167466799     Delta-E=       -0.000000000383 Rises=F Damp=F
 DIIS: error= 6.74D-06 at cycle   3 NSaved=   3.
 NSaved= 3 IEnMin= 3 EnMin= -76.4215167466799     IErMin= 3 ErrMin= 6.74D-06
 ErrMax= 6.74D-06  0.00D+00 EMaxC= 1.00D-01 BMatC= 1.20D-09 BMatP= 1.45D-09
 IDIUse=1 WtCom= 1.00D+00 WtEn= 0.00D+00
 Coeff-Com: -0.528D-01 0.489D+00 0.563D+00
 Coeff:     -0.528D-01 0.489D+00 0.563D+00
 Gap=     0.461 Goal=   None    Shift=    0.000
 RMSDP=3.97D-07 MaxDP=5.25D-06 DE=-3.83D-10 OVMax= 9.93D-06

 Cycle   9  Pass 1  IDiag  1:
 E= -76.4215167474825     Delta-E=       -0.000000000803 Rises=F Damp=F
 DIIS: error= 5.66D-07 at cycle   4 NSaved=   4.
 NSaved= 4 IEnMin= 4 EnMin= -76.4215167474825     IErMin= 4 ErrMin= 5.66D-07
 ErrMax= 5.66D-07  0.00D+00 EMaxC= 1.00D-01 BMatC= 4.10D-12 BMatP= 1.20D-09
 IDIUse=1 WtCom= 1.00D+00 WtEn= 0.00D+00
 Coeff-Com: -0.140D-02-0.377D-01-0.164D-01 0.106D+01
 Coeff:     -0.140D-02-0.377D-01-0.164D-01 0.106D+01
 Gap=     0.461 Goal=   None    Shift=    0.000
 RMSDP=7.92D-08 MaxDP=6.59D-07 DE=-8.03D-10 OVMax= 1.76D-06

 Cycle  10  Pass 1  IDiag  1:
 E= -76.4215167474912     Delta-E=       -0.000000000009 Rises=F Damp=F
 DIIS: error= 9.77D-08 at cycle   5 NSaved=   5.
 NSaved= 5 IEnMin= 5 EnMin= -76.4215167474912     IErMin= 5 ErrMin= 9.77D-08
 ErrMax= 9.77D-08  0.00D+00 EMaxC= 1.00D-01 BMatC= 2.85D-13 BMatP= 4.10D-12
 IDIUse=1 WtCom= 1.00D+00 WtEn= 0.00D+00
 Coeff-Com:  0.335D-02-0.393D-01-0.393D-01 0.107D+00 0.968D+00
 Coeff:      0.335D-02-0.393D-01-0.393D-01 0.107D+00 0.968D+00
 Gap=     0.461 Goal=   None    Shift=    0.000
 RMSDP=2.26D-08 MaxDP=1.80D-07 DE=-8.71D-12 OVMax= 5.18D-07

 Cycle  11  Pass 1  IDiag  1:
 E= -76.4215167474917     Delta-E=       -0.000000000000 Rises=F Damp=F
 DIIS: error= 1.25D-08 at cycle   6 NSaved=   6.
 NSaved= 6 IEnMin= 6 EnMin= -76.4215167474917     IErMin= 6 ErrMin= 1.25D-08
 ErrMax= 1.25D-08  0.00D+00 EMaxC= 1.00D-01 BMatC= 3.67D-15 BMatP= 2.85D-13
 IDIUse=1 WtCom= 1.00D+00 WtEn= 0.00D+00
 Coeff-Com:  0.774D-04 0.389D-03 0.701D-03-0.221D-01-0.155D-01 0.104D+01
 Coeff:      0.774D-04 0.389D-03 0.701D-03-0.221D-01-0.155D-01 0.104D+01
 Gap=     0.461 Goal=   None    Shift=    0.000
 RMSDP=3.08D-09 MaxDP=3.10D-08 DE=-4.41D-13 OVMax= 5.67D-08

 SCF Done:  E(RM062X) =  -76.4215167475     A.U. after   11 cycles
            NFock= 11  Conv=0.31D-08     -V/T= 2.0031
 KE= 7.618402813390D+01 PE=-1.989827298194D+02 EE= 3.730779296440D+01
 Leave Link  502 at Mon Feb 20 01:05:29 2023, MaxMem=  6710886400 cpu:               8.8 elap:               0.4
 (Enter /data0/home/software/g16/l601.exe)
 Copying SCF densities to generalized density rwf, IOpCl= 0 IROHF=0.

 **********************************************************************

            Population analysis using the SCF density.

 **********************************************************************

 Alpha  occ. eigenvalues --  -19.62721  -1.13268  -0.60328  -0.47716  -0.39985
 Alpha virt. eigenvalues --    0.06159   0.13267   0.17431   0.17944   0.18897
 Alpha virt. eigenvalues --    0.23436   0.50589   0.53369   0.98167   1.00329
 Alpha virt. eigenvalues --    1.05997   1.17393   1.20123   1.31843   1.34132
 Alpha virt. eigenvalues --    1.70427   1.74146   1.75173   2.06968   2.09640
 Alpha virt. eigenvalues --    2.36294   2.39136   2.54867   2.87304   3.01011
 Alpha virt. eigenvalues --    5.05601   5.48517   5.89768   6.78519   6.80026
 Alpha virt. eigenvalues --    6.87361   6.91630   7.09664  49.95289
          Condensed to atoms (all electrons):
              32         33         34
    32  O    7.920430   0.318150   0.314642
    33  H    0.318150   0.430351  -0.023563
    34  H    0.314642  -0.023563   0.430761
 Mulliken charges:
               1
     1  C    0.000000
     2  H    0.000000
     3  H    0.000000
     4  H    0.000000
     5  C    0.000000
     6  H    0.000000
     7  H    0.000000
     8  H    0.000000
     9  C    0.000000
    10  H    0.000000
    11  H    0.000000
    12  H    0.000000
    13  C    0.000000
    14  H    0.000000
    15  H    0.000000
    16  C    0.000000
    17  H    0.000000
    18  H    0.000000
    19  C    0.000000
    20  H    0.000000
    21  H    0.000000
    22  N    0.000000
    23  C    0.000000
    24  O    0.000000
    25  O    0.000000
    26  O    0.000000
    27  H    0.000000
    28  H    0.000000
    29  O    0.000000
    30  H    0.000000
    31  H    0.000000
    32  O   -0.553222
    33  H    0.275062
    34  H    0.278160
 Sum of Mulliken charges =   0.00000
 Mulliken charges with hydrogens summed into heavy atoms:
               1
     1  C    0.000000
     5  C    0.000000
     9  C    0.000000
    13  C    0.000000
    16  C    0.000000
    19  C    0.000000
    22  N    0.000000
    23  C    0.000000
    24  O    0.000000
    25  O    0.000000
    26  O    0.000000
    29  O    0.000000
    32  O    0.000000
         Mulliken charges condensed to fragments:
      1      0.000000
      2      0.000000
      3      0.000000
      4      0.000000
 Electronic spatial extent (au):  <R**2>=          14021.2831
 Charge=              0.0000 electrons
 Dipole moment (field-independent basis, Debye):
    X=              0.5016    Y=             -1.3308    Z=             -1.6008  Tot=              2.1413
 Quadrupole moment (field-independent basis, Debye-Ang):
   XX=              7.3733   YY=            -41.5840   ZZ=            -35.1586
   XY=             -9.7429   XZ=            -14.0384   YZ=            -31.8866
 Traceless Quadrupole moment (field-independent basis, Debye-Ang):
   XX=             30.4964   YY=            -18.4609   ZZ=            -12.0355
   XY=             -9.7429   XZ=            -14.0384   YZ=            -31.8866
 Octapole moment (field-independent basis, Debye-Ang**2):
  XXX=             49.2958  YYY=           -946.1384  ZZZ=           -559.8268  XYY=           -421.9116
  XXY=           -103.2942  XXZ=           -148.7872  XZZ=           -370.0501  YZZ=           -548.6473
  YYZ=           -621.2420  XYZ=           -318.2267
 Hexadecapole moment (field-independent basis, Debye-Ang**3):
 XXXX=           -543.8395 YYYY=         -18735.7085 ZZZZ=          -7742.0848 XXXY=          -1802.6600
 XXXZ=          -2053.2131 YYYX=         -10401.9192 YYYZ=         -11570.8534 ZZZX=          -6208.6169
 ZZZY=          -8029.2754 XXYY=          -4940.3395 XXZZ=          -4205.6943 YYZZ=          -8889.0129
 XXYZ=          -3600.6798 YYXZ=          -6654.4605 ZZXY=          -5936.4152
 N-N= 9.069391973585D+00 E-N=-1.989827299992D+02  KE= 7.618402813390D+01
 No NMR shielding tensors so no spin-rotation constants.
 Leave Link  601 at Mon Feb 20 01:05:29 2023, MaxMem=  6710886400 cpu:               1.8 elap:               0.1
 (Enter /data0/home/software/g16/l122.exe)
 CPIOFr:  IOpCl= 0 IRwI=-1 IRwCP=  731 ICalc=  8 LCPTot=      352937 Len1MO=      920657 IndFrg=     8638850
 Restoring MOs from calculation   1 to rwf.
 CPIOFr:  IOpCl= 0 IRwI=-2 IRwCP=  731 ICalc=  0 LCPTot=      352937 Len1MO=      920657 IndFrg=     1273594
 Counterpoise corrected energy =    -710.190710115365
                   BSSE energy =       0.004991112414
              sum of fragments =    -710.104881693899
           complexation energy =     -56.99 kcal/mole (raw)
           complexation energy =     -53.86 kcal/mole (corrected)
 Leave Link  122 at Mon Feb 20 01:05:29 2023, MaxMem=  6710886400 cpu:               0.4 elap:               0.0
 (Enter /data0/home/software/g16/l9999.exe)
 1\1\GINC-LOCALHOST\SP\RM062X\6-311+G(2d,p)\C7H21N1O5\WUHANYU\20-Feb-20
 23\0\\#p M062X/6-311+G(2d,p) nosymm em=GD3 counterpoise=4\\Title Card 
 Required\\0,1\C,0,11.570971,10.902812,11.934201\H,0,12.341504,11.17179
 2,11.17734\H,0,11.927156,11.204639,12.926712\H,0,11.493492,9.795823,11
 .914552\C,0,9.218533,11.113216,12.592101\H,0,8.223918,11.509268,12.330
 819\H,0,9.13549,10.000989,12.602921\H,0,9.473712,11.439739,13.61038\C,
 0,10.429446,13.033683,11.660123\H,0,9.476955,13.566655,11.521734\H,0,1
 0.862696,13.346728,12.621094\H,0,11.122705,13.37309,10.849025\C,0,9.83
 9524,11.092332,10.206138\H,0,9.418151,10.056452,10.275437\H,0,10.77585
 5,10.994555,9.595897\C,0,8.86158,12.022159,9.48275\H,0,9.360869,12.980
 861,9.219924\H,0,7.987904,12.269212,10.10953\C,0,8.39619,11.346324,8.1
 88291\H,0,7.919568,12.077897,7.511075\H,0,7.634408,10.568984,8.393658\
 N,0,10.251838,11.546696,11.595012\C,0,9.601984,10.728739,7.470939\O,0,
 10.552222,11.474242,7.173417\O,0,9.573459,9.491118,7.287399\O,0,8.1607
 97,8.124526,9.112979\H,0,8.659827,8.620721,8.410191\H,0,7.979763,7.277
 555,8.718823\O,0,9.889878,8.121935,11.284442\H,0,10.731491,8.08876,10.
 817381\H,0,9.227438,7.99733,10.581012\O,0,12.001186,12.993747,9.003599
 \H,0,12.858712,12.616645,8.791935\H,0,11.420435,12.617903,8.307164\\Ve
 rsion=ES64L-G16RevA.03\HF=-76.4215167\RMSD=3.076e-09\Dipole=0.3324187,
 0.9935064,3.9664806\Quadrupole=-47.6160714,-26.9685177,74.5845891,22.1
 224964,86.0334297,106.422822\PG=C01 [X(C7H21N1O5)]\\@


 LIFE CAN ONLY BE UNDERSTOOD BACKWARD, BUT MUST
 BE LIVED FORWARD. -- KIRKEGAARD
 Job cpu time:       0 days  2 hours 44 minutes  5.5 seconds.
 Elapsed time:       0 days  0 hours  6 minutes 53.0 seconds.
 File lengths (MBytes):  RWF=    209 Int=      0 D2E=      0 Chk=     79 Scr=      1
 Normal termination of Gaussian 16 at Mon Feb 20 01:05:29 2023.
