 Entering Gaussian System, Link 0=g16
 Initial command:
 /data0/home/software/g16/l1.exe "/data0/home/software/g16/scratch/Gau-403058.inp" -scrdir="/data0/home/software/g16/scratch/"
 Default is to use a total of  22 processors:
                               22 via shared-memory
                                1 via Linda
 Entering Link 1 = /data0/home/software/g16/l1.exe PID=    403059.
  
 Copyright (c) 1988,1990,1992,1993,1995,1998,2003,2009,2016,
            Gaussian, Inc.  All Rights Reserved.
  
 This is part of the Gaussian(R) 16 program.  It is based on
 the Gaussian(R) 09 system (copyright 2009, Gaussian, Inc.),
 the Gaussian(R) 03 system (copyright 2003, Gaussian, Inc.),
 the Gaussian(R) 98 system (copyright 1998, Gaussian, Inc.),
 the Gaussian(R) 94 system (copyright 1995, Gaussian, Inc.),
 the Gaussian 92(TM) system (copyright 1992, Gaussian, Inc.),
 the Gaussian 90(TM) system (copyright 1990, Gaussian, Inc.),
 the Gaussian 88(TM) system (copyright 1988, Gaussian, Inc.),
 the Gaussian 86(TM) system (copyright 1986, Carnegie Mellon
 University), and the Gaussian 82(TM) system (copyright 1983,
 Carnegie Mellon University). Gaussian is a federally registered
 trademark of Gaussian, Inc.
  
 This software contains proprietary and confidential information,
 including trade secrets, belonging to Gaussian, Inc.
  
 This software is provided under written license and may be
 used, copied, transmitted, or stored only in accord with that
 written license.
  
 The following legend is applicable only to US Government
 contracts under FAR:
  
                    RESTRICTED RIGHTS LEGEND
  
 Use, reproduction and disclosure by the US Government is
 subject to restrictions as set forth in subparagraphs (a)
 and (c) of the Commercial Computer Software - Restricted
 Rights clause in FAR 52.227-19.
  
 Gaussian, Inc.
 340 Quinnipiac St., Bldg. 40, Wallingford CT 06492
  
  
 ---------------------------------------------------------------
 Warning -- This program may not be used in any manner that
 competes with the business of Gaussian, Inc. or will provide
 assistance to any competitor of Gaussian, Inc.  The licensee
 of this program is prohibited from giving any competitor of
 Gaussian, Inc. access to this program.  By using this program,
 the user acknowledges that Gaussian, Inc. is engaged in the
 business of creating and licensing software in the field of
 computational chemistry and represents and warrants to the
 licensee that it is not a competitor of Gaussian, Inc. and that
 it will not use this program in any manner prohibited above.
 ---------------------------------------------------------------
  

 Cite this work as:
 Gaussian 16, Revision A.03,
 M. J. Frisch, G. W. Trucks, H. B. Schlegel, G. E. Scuseria, 
 M. A. Robb, J. R. Cheeseman, G. Scalmani, V. Barone, 
 G. A. Petersson, H. Nakatsuji, X. Li, M. Caricato, A. V. Marenich, 
 J. Bloino, B. G. Janesko, R. Gomperts, B. Mennucci, H. P. Hratchian, 
 J. V. Ortiz, A. F. Izmaylov, J. L. Sonnenberg, D. Williams-Young, 
 F. Ding, F. Lipparini, F. Egidi, J. Goings, B. Peng, A. Petrone, 
 T. Henderson, D. Ranasinghe, V. G. Zakrzewski, J. Gao, N. Rega, 
 G. Zheng, W. Liang, M. Hada, M. Ehara, K. Toyota, R. Fukuda, 
 J. Hasegawa, M. Ishida, T. Nakajima, Y. Honda, O. Kitao, H. Nakai, 
 T. Vreven, K. Throssell, J. A. Montgomery, Jr., J. E. Peralta, 
 F. Ogliaro, M. J. Bearpark, J. J. Heyd, E. N. Brothers, K. N. Kudin, 
 V. N. Staroverov, T. A. Keith, R. Kobayashi, J. Normand, 
 K. Raghavachari, A. P. Rendell, J. C. Burant, S. S. Iyengar, 
 J. Tomasi, M. Cossi, J. M. Millam, M. Klene, C. Adamo, R. Cammi, 
 J. W. Ochterski, R. L. Martin, K. Morokuma, O. Farkas, 
 J. B. Foresman, and D. J. Fox, Gaussian, Inc., Wallingford CT, 2016.
 
 ******************************************
 Gaussian 16:  ES64L-G16RevA.03 25-Dec-2016
                20-Feb-2023 
 ******************************************
 %nproc=24
 Will use up to   24 processors via shared memory.
 %mem=50GB
 ---------------------------------------------------
 #p M062X/6-311+G(2d,p) nosymm em=GD3 counterpoise=5
 ---------------------------------------------------
 1/38=1,62=5,172=1/1;
 2/12=2,15=1,17=6,18=5,40=1/2;
 1/38=1,53=2,62=5,63=1/22;
 3/5=4,6=6,7=112,11=2,25=1,30=1,74=-55,124=31/1,2,3;
 4//1;
 5/5=2,38=5/2;
 6/7=2,8=2,9=2,10=2,28=1/1;
 1/53=2,62=5,63=1/22;
 3/5=7,6=11,7=112,11=2,25=1,30=1,74=-55,82=7,124=31/1,2,3;
 4//1;
 5/5=2,38=5/2;
 6/7=2,8=2,9=2,10=2,28=1/1;
 1/53=2,62=5,63=1/22(-4);
 99/5=1,9=1/99;
 Leave Link    1 at Mon Feb 20 10:10:44 2023, MaxMem=  6710886400 cpu:               0.7 elap:               0.0
 (Enter /data0/home/software/g16/l101.exe)
 -------------------
 Title Card Required
 -------------------
 Symbolic Z-matrix:
 Charge =  0 Multiplicity = 1 in supermolecule
 Charge =  0 Multiplicity = 1 in fragment      1.
 Charge =  0 Multiplicity = 1 in fragment      2.
 Charge =  0 Multiplicity = 1 in fragment      3.
 Charge =  0 Multiplicity = 1 in fragment      4.
 Charge =  0 Multiplicity = 1 in fragment      5.
 C                     17.29936   6.37306   10.4891    
 C                     16.67787   6.67355   11.7068    
 C                     16.32895   8.00066   11.98131    
 C                     16.64567   8.99322   11.05564    
 C                     17.28551   8.65995   9.86531    
 H                     15.79232   8.25248   12.90245    
 H                     17.5238   5.32883   10.20701    
 H                     16.36586   10.03757   11.23837    
 H                     17.53631   9.42051   9.1108     
 C                     16.36748   5.57495   12.65455    
 H                     15.54037   5.83985   13.33812    
 H                     16.01515   4.66571   12.12995    
 H                     17.23375   5.29568   13.26705    
 N                     17.59911   7.35977   9.59963    
 C                     18.27882   7.01876   8.3262     
 H                     19.25093   7.5607    8.29803    
 H                     18.51154   5.92388   8.32039    
 C                     17.43181   7.36096   7.08711    
 H                     16.68543   8.15656   7.31488    
 H                     18.0851   7.79607   6.30516    
 C                     16.70631   6.1387    6.52813    
 H                     16.22921   6.38124   5.55698    
 H                     17.39335   5.29779   6.33388    
 C                     15.63496   5.69897   7.52223    
 O                     14.44017   5.81529   7.18783    
 O                     16.02315   5.29106   8.63842    
 O                     12.63055   3.77485   7.16328    
 H                     13.35526   4.43896   7.22028    
 H                     12.00927   4.16888   6.55667    
 O                     13.97204   10.46303   10.99969    
 H                     13.86899   9.52369   11.24226    
 H                     13.07829   10.7545   10.82049    
 O                     11.64174   3.56316   9.73458    
 H                     12.40924   3.18788   10.17332    
 H                     11.92196   3.61871   8.79544    
 O                     15.20243   9.61979   8.58331    
 H                     14.61544   8.8591    8.4982     
 H                     14.82948   10.07934   9.35231    
 
 ITRead=  0  0  0  0  0  0  0  0  0  0  0  0  0  0  0  0  0  0  0  0
 ITRead=  0  0  0  0  0  0  0  0  0  0  0  0  0  0  0  0  0  0
 MicOpt= -1 -1 -1 -1 -1 -1 -1 -1 -1 -1 -1 -1 -1 -1 -1 -1 -1 -1 -1 -1
 MicOpt= -1 -1 -1 -1 -1 -1 -1 -1 -1 -1 -1 -1 -1 -1 -1 -1 -1 -1
 NAtoms=     38 NQM=       38 NQMF=       0 NMMI=      0 NMMIF=      0
                NMic=       0 NMicF=      0.
                    Isotopes and Nuclear Properties:
 (Nuclear quadrupole moments (NQMom) in fm**2, nuclear magnetic moments (NMagM)
  in nuclear magnetons)

  Atom         1           2           3           4           5           6           7           8           9          10
 IAtWgt=          12          12          12          12          12           1           1           1           1          12
 AtmWgt=  12.0000000  12.0000000  12.0000000  12.0000000  12.0000000   1.0078250   1.0078250   1.0078250   1.0078250  12.0000000
 NucSpn=           0           0           0           0           0           1           1           1           1           0
 AtZEff=  -0.0000000  -0.0000000  -0.0000000  -0.0000000  -0.0000000  -0.0000000  -0.0000000  -0.0000000  -0.0000000  -0.0000000
 NQMom=    0.0000000   0.0000000   0.0000000   0.0000000   0.0000000   0.0000000   0.0000000   0.0000000   0.0000000   0.0000000
 NMagM=    0.0000000   0.0000000   0.0000000   0.0000000   0.0000000   2.7928460   2.7928460   2.7928460   2.7928460   0.0000000
 AtZNuc=   6.0000000   6.0000000   6.0000000   6.0000000   6.0000000   1.0000000   1.0000000   1.0000000   1.0000000   6.0000000

  Atom        11          12          13          14          15          16          17          18          19          20
 IAtWgt=           1           1           1          14          12           1           1          12           1           1
 AtmWgt=   1.0078250   1.0078250   1.0078250  14.0030740  12.0000000   1.0078250   1.0078250  12.0000000   1.0078250   1.0078250
 NucSpn=           1           1           1           2           0           1           1           0           1           1
 AtZEff=  -0.0000000  -0.0000000  -0.0000000  -0.0000000  -0.0000000  -0.0000000  -0.0000000  -0.0000000  -0.0000000  -0.0000000
 NQMom=    0.0000000   0.0000000   0.0000000   2.0440000   0.0000000   0.0000000   0.0000000   0.0000000   0.0000000   0.0000000
 NMagM=    2.7928460   2.7928460   2.7928460   0.4037610   0.0000000   2.7928460   2.7928460   0.0000000   2.7928460   2.7928460
 AtZNuc=   1.0000000   1.0000000   1.0000000   7.0000000   6.0000000   1.0000000   1.0000000   6.0000000   1.0000000   1.0000000

  Atom        21          22          23          24          25          26          27          28          29          30
 IAtWgt=          12           1           1          12          16          16          16           1           1          16
 AtmWgt=  12.0000000   1.0078250   1.0078250  12.0000000  15.9949146  15.9949146  15.9949146   1.0078250   1.0078250  15.9949146
 NucSpn=           0           1           1           0           0           0           0           1           1           0
 AtZEff=  -0.0000000  -0.0000000  -0.0000000  -0.0000000  -0.0000000  -0.0000000  -0.0000000  -0.0000000  -0.0000000  -0.0000000
 NQMom=    0.0000000   0.0000000   0.0000000   0.0000000   0.0000000   0.0000000   0.0000000   0.0000000   0.0000000   0.0000000
 NMagM=    0.0000000   2.7928460   2.7928460   0.0000000   0.0000000   0.0000000   0.0000000   2.7928460   2.7928460   0.0000000
 AtZNuc=   6.0000000   1.0000000   1.0000000   6.0000000   8.0000000   8.0000000   8.0000000   1.0000000   1.0000000   8.0000000

  Atom        31          32          33          34          35          36          37          38
 IAtWgt=           1           1          16           1           1          16           1           1
 AtmWgt=   1.0078250   1.0078250  15.9949146   1.0078250   1.0078250  15.9949146   1.0078250   1.0078250
 NucSpn=           1           1           0           1           1           0           1           1
 AtZEff=  -0.0000000  -0.0000000  -0.0000000  -0.0000000  -0.0000000  -0.0000000  -0.0000000  -0.0000000
 NQMom=    0.0000000   0.0000000   0.0000000   0.0000000   0.0000000   0.0000000   0.0000000   0.0000000
 NMagM=    2.7928460   2.7928460   0.0000000   2.7928460   2.7928460   0.0000000   2.7928460   2.7928460
 AtZNuc=   1.0000000   1.0000000   8.0000000   1.0000000   1.0000000   8.0000000   1.0000000   1.0000000
 Leave Link  101 at Mon Feb 20 10:10:45 2023, MaxMem=  6710886400 cpu:               2.3 elap:               0.1
 (Enter /data0/home/software/g16/l202.exe)
                          Input orientation:                          
 ---------------------------------------------------------------------
 Center     Atomic      Atomic             Coordinates (Angstroms)
 Number     Number       Type             X           Y           Z
 ---------------------------------------------------------------------
      1          6           0       17.299360    6.373064   10.489098
      2          6           0       16.677871    6.673549   11.706801
      3          6           0       16.328951    8.000664   11.981306
      4          6           0       16.645667    8.993219   11.055639
      5          6           0       17.285505    8.659954    9.865310
      6          1           0       15.792322    8.252482   12.902449
      7          1           0       17.523803    5.328829   10.207012
      8          1           0       16.365865   10.037571   11.238366
      9          1           0       17.536307    9.420515    9.110803
     10          6           0       16.367481    5.574951   12.654545
     11          1           0       15.540368    5.839847   13.338115
     12          1           0       16.015146    4.665714   12.129952
     13          1           0       17.233748    5.295682   13.267047
     14          7           0       17.599114    7.359768    9.599631
     15          6           0       18.278816    7.018757    8.326198
     16          1           0       19.250933    7.560704    8.298030
     17          1           0       18.511536    5.923880    8.320388
     18          6           0       17.431812    7.360960    7.087109
     19          1           0       16.685425    8.156558    7.314880
     20          1           0       18.085102    7.796073    6.305161
     21          6           0       16.706309    6.138698    6.528134
     22          1           0       16.229206    6.381238    5.556980
     23          1           0       17.393345    5.297793    6.333882
     24          6           0       15.634956    5.698971    7.522230
     25          8           0       14.440169    5.815293    7.187827
     26          8           0       16.023154    5.291065    8.638416
     27          8           0       12.630554    3.774847    7.163280
     28          1           0       13.355265    4.438959    7.220284
     29          1           0       12.009270    4.168882    6.556673
     30          8           0       13.972038   10.463029   10.999691
     31          1           0       13.868988    9.523690   11.242255
     32          1           0       13.078289   10.754501   10.820493
     33          8           0       11.641740    3.563158    9.734581
     34          1           0       12.409237    3.187881   10.173319
     35          1           0       11.921955    3.618708    8.795440
     36          8           0       15.202429    9.619788    8.583305
     37          1           0       14.615438    8.859100    8.498200
     38          1           0       14.829477   10.079340    9.352311
 ---------------------------------------------------------------------
                    Distance matrix (angstroms):
                    1          2          3          4          5
     1  C    0.000000
     2  C    1.399764   0.000000
     3  C    2.411941   1.399404   0.000000
     4  C    2.759256   2.409547   1.393676   0.000000
     5  C    2.370479   2.775989   2.413938   1.391884   0.000000
     6  H    3.409932   2.169516   1.095394   2.165086   3.408789
     7  H    1.104705   2.184775   3.422644   3.862518   3.357073
     8  H    3.855052   3.410780   2.168482   1.096517   2.151476
     9  H    3.353028   3.875815   3.422495   2.181332   1.100289
    10  C    2.488884   1.483738   2.517701   3.783972   4.259090
    11  H    3.390468   2.156422   2.670566   4.046621   4.801966
    12  H    2.693817   2.156308   3.352978   4.503222   4.764071
    13  H    2.980278   2.154503   3.128692   4.348327   4.784644
    14  N    1.361833   2.399948   2.774245   2.386877   1.363605
    15  C    2.460567   3.756417   4.257456   3.743731   2.459484
    16  H    3.165423   4.362042   4.722083   4.055110   2.743652
    17  H    2.524765   3.923280   4.741206   4.514854   3.372838
    18  C    3.544998   4.731016   5.057538   4.362513   3.070373
    19  H    3.692347   4.635552   4.682618   3.833388   2.667995
    20  H    4.488616   5.693687   5.945128   5.106092   3.749708
    21  C    4.011966   5.206291   5.774634   5.352595   4.222433
    22  H    5.046889   6.173090   6.626044   6.101732   4.986985
    23  H    4.293118   5.592215   6.350736   6.042366   4.877165
    24  C    3.467989   4.421324   5.065844   4.935442   4.120893
    25  O    4.402780   5.115177   5.596498   5.470229   4.832903
    26  O    2.494884   3.428542   4.313972   4.465023   3.801080
    27  O    6.293612   6.739943   7.399260   7.648725   7.268687
    28  H    5.475563   6.013480   6.647998   6.802792   6.345057
    29  H    6.950355   7.388708   7.922679   8.062946   7.678246
    30  O    5.297130   4.709745   3.547090   3.051518   3.939158
    31  H    4.718171   4.028515   2.986172   2.833050   3.783465
    32  H    6.092968   5.513320   4.415644   3.985423   4.795849
    33  O    6.361881   6.239135   6.834411   7.501336   7.605689
    34  H    5.844520   5.720375   6.464971   7.240703   7.335969
    35  H    6.274666   6.358208   6.983759   7.503821   7.438175
    36  O    4.309337   4.540207   3.928998   2.930522   2.627551
    37  H    4.165031   4.396065   3.975559   3.268075   3.006311
    38  H    4.596639   4.534269   3.671639   2.716529   2.882689
                    6          7          8          9         10
     6  H    0.000000
     7  H    4.337183   0.000000
     8  H    2.506924   4.957496   0.000000
     9  H    4.333862   4.236003   2.505437   0.000000
    10  C    2.749807   2.718101   4.681938   5.358416   0.000000
    11  H    2.464568   3.741518   4.765635   5.888559   1.105239
    12  H    3.675773   2.532482   5.456627   5.834152   1.107271
    13  H    3.309578   3.073930   5.230132   5.863459   1.097073
    14  N    3.869114   2.121155   3.372979   2.118862   3.746330
    15  C    5.352271   2.638818   4.610135   2.633508   4.946955
    16  H    5.800105   3.407118   4.806669   2.656961   5.588983
    17  H    5.814791   2.211120   5.480963   3.715143   4.848055
    18  C    6.107448   3.724488   5.053061   2.889295   5.942977
    19  H    5.659308   4.130782   4.362805   2.355191   5.939512
    20  H    6.999240   4.650461   5.684769   3.288102   6.942498
    21  C    6.777562   3.854650   6.124002   4.257863   6.161617
    22  H    7.592650   4.940278   6.757632   4.855448   7.144554
    23  H    7.378315   3.875451   6.897476   4.972782   6.409368
    24  C    5.957511   3.303453   5.759110   4.470860   5.185811
    25  O    6.358075   4.342917   6.159773   5.126552   5.801491
    26  O    5.196658   2.171144   5.422777   4.423250   4.040847
    27  O    7.936249   5.968505   8.353477   7.728701   6.881787
    28  H    7.264241   5.204721   7.520183   6.772819   6.316258
    29  H    8.441335   6.714203   8.679843   8.040607   7.625948
    30  O    3.438087   6.293122   2.443028   4.166383   5.689464
    31  H    2.841026   5.659175   2.549212   4.242990   4.881554
    32  H    4.237997   7.041084   3.390688   4.957467   6.403926
    33  O    7.018011   6.159501   8.154554   8.333286   5.908141
    34  H    6.674099   5.544689   7.981697   8.140118   5.246168
    35  H    7.301995   6.024761   8.180344   8.079689   6.203409
    36  O    4.568644   5.141744   2.928733   2.401031   5.856027
    37  H    4.598962   4.882770   3.458511   3.036766   5.579471
    38  H    4.107062   5.527862   2.432989   2.796302   5.793076
                   11         12         13         14         15
    11  H    0.000000
    12  H    1.750331   0.000000
    13  H    1.780085   1.781807   0.000000
    14  N    4.530437   4.021120   4.224202   0.000000
    15  C    5.831658   5.012939   5.336023   1.483211   0.000000
    16  H    6.490924   5.790934   5.821554   2.112592   1.113333
    17  H    5.832022   4.725222   5.147505   2.128556   1.119352
    18  C    6.705701   5.890803   6.518914   2.518086   1.539435
    19  H    6.554210   5.984997   6.626731   2.586463   2.203690
    20  H    7.730778   6.929073   7.446114   3.358583   2.174014
    21  C    6.915531   5.833331   6.811888   3.423771   2.545647
    22  H    7.830304   6.796529   7.850648   4.379178   3.503698
    23  H    7.265441   5.991109   6.935002   3.867712   2.777607
    24  C    5.818360   4.737432   5.976763   3.306321   3.062384
    25  O    6.247966   5.312879   6.710514   4.263934   4.180840
    26  O    4.756198   3.547105   4.784327   2.772565   2.858393
    27  O    7.131608   6.075931   7.794761   6.593486   6.616509
    28  H    6.645677   5.588490   7.234635   5.674740   5.667430
    29  H    7.826157   6.881520   8.578693   7.119530   7.110571
    30  O    5.413104   6.249851   6.517755   4.974543   6.128533
    31  H    4.555967   5.384601   5.770394   4.614609   5.850185
    32  H    6.045997   6.885720   7.283692   5.783820   6.871883
    33  O    5.776510   5.106869   6.837434   7.065604   7.614163
    34  H    5.181972   4.360617   6.106544   6.683456   7.248408
    35  H    6.217899   5.382323   7.143014   6.846341   7.224279
    36  O    6.083615   6.146712   6.690410   3.447420   4.036784
    37  H    5.778941   5.721302   6.503491   3.516173   4.103265
    38  H    5.862192   6.199068   6.632425   3.889489   4.724195
                   16         17         18         19         20
    16  H    0.000000
    17  H    1.796218   0.000000
    18  C    2.194408   2.179904   0.000000
    19  H    2.811309   3.054600   1.114428   0.000000
    20  H    2.320795   2.783540   1.107950   1.763116   0.000000
    21  C    3.410241   2.552874   1.527328   2.165910   2.167413
    22  H    4.246802   3.613119   2.178855   2.539707   2.450690
    23  H    3.525518   2.364010   2.196700   3.104198   2.592442
    24  C    4.140435   2.993719   2.486007   2.680711   3.447073
    25  O    5.236646   4.227353   3.368851   3.246358   4.241241
    26  O    3.960515   2.587207   2.945392   3.225120   3.996345
    27  O    7.710369   6.367354   5.993170   5.971964   6.830719
    28  H    6.757642   5.477440   5.017376   4.991939   5.871884
    29  H    8.184037   6.962052   6.314641   6.192161   7.080643
    30  O    6.602211   6.956262   6.074633   5.124462   6.787383
    31  H    6.441049   6.561188   5.885266   5.022513   6.718272
    32  H    7.393558   7.688016   6.663891   5.661277   7.362655
    33  O    8.714578   7.400476   7.413322   7.238303   8.437737
    34  H    8.333492   6.939531   7.222572   7.151518   8.271247
    35  H    8.336706   6.997290   6.876145   6.743500   7.850876
    36  O    4.550999   4.967801   3.508711   2.439103   4.101912
    37  H    4.818061   4.881261   3.488204   2.485691   4.240049
    38  H    5.196567   5.647147   4.392366   3.360470   5.009743
                   21         22         23         24         25
    21  C    0.000000
    22  H    1.108870   0.000000
    23  H    1.103120   1.769929   0.000000
    24  C    1.526232   2.163522   2.159872   0.000000
    25  O    2.382263   2.486083   3.117415   1.246143   0.000000
    26  O    2.374547   3.275085   2.681109   1.250182   2.210173
    27  O    4.754259   4.724804   5.068673   3.585740   2.727403
    28  H    3.820691   3.846890   4.222487   2.622173   1.752816
    29  H    5.093443   4.868446   5.505664   4.052045   3.003048
    30  O    6.794917   7.167910   7.755951   6.128155   6.029171
    31  H    6.459992   6.911439   7.373698   5.620116   5.524205
    32  H    7.272724   7.533809   8.277986   6.555415   6.280665
    33  O    6.524153   6.814600   6.903236   5.040037   4.403325
    34  H    6.360780   6.789719   6.635837   4.872280   4.465550
    35  H    5.863537   6.055709   6.230145   4.442402   3.708208
    36  O    4.313162   4.549848   5.342252   4.084821   4.123419
    37  H    3.956449   4.170710   5.008388   3.460975   3.318517
    38  H    5.198763   5.480852   6.208665   4.815145   4.797775
                   26         27         28         29         30
    26  O    0.000000
    27  O    3.998084   0.000000
    28  H    3.139238   0.984632   0.000000
    29  H    4.658778   0.953535   1.524803   0.000000
    30  O    6.044163   7.826200   7.138189   7.950418   0.000000
    31  H    5.416228   7.156881   6.503434   7.354400   0.975610
    32  H    6.578968   7.892480   7.274908   7.917913   0.957003
    33  O    4.835704   2.762997   3.166210   3.255930   7.391821
    34  H    4.454179   3.074711   3.343738   3.768616   7.486856
    35  H    4.431847   1.786180   2.282171   2.307031   7.477051
    36  O    4.406185   6.541739   5.666642   6.634446   2.839690
    37  H    3.838255   5.618844   4.770613   5.706118   3.040396
    38  H    4.986190   7.026646   6.207474   7.120581   1.896386
                   31         32         33         34         35
    31  H    0.000000
    32  H    1.522493   0.000000
    33  O    6.539240   7.413386   0.000000
    34  H    6.589080   7.623661   0.960404   0.000000
    35  H    6.681815   7.507163   0.981627   1.523682   0.000000
    36  O    2.976124   3.287028   7.119460   7.190236   6.842476
    37  H    2.920395   3.368741   6.198267   6.311582   5.899569
    38  H    2.191615   2.382868   7.264188   7.350090   7.106585
                   36         37         38
    36  O    0.000000
    37  H    0.964597   0.000000
    38  H    0.970387   1.504760   0.000000
 Symmetry turned off by external request.
 Stoichiometry    C10H21NO6
 Framework group  C1[X(C10H21NO6)]
 Deg. of freedom   108
 Full point group                 C1      NOp   1
 Rotational constants (GHZ):           0.3881937           0.2598443           0.2304142
 Leave Link  202 at Mon Feb 20 10:10:45 2023, MaxMem=  6710886400 cpu:               0.1 elap:               0.0
 (Enter /data0/home/software/g16/l122.exe)
 Counterpoise: doing full-system calculation.
 Leave Link  122 at Mon Feb 20 10:10:45 2023, MaxMem=  6710886400 cpu:               0.0 elap:               0.0
 (Enter /data0/home/software/g16/l301.exe)
 Standard basis: 6-311+G(2d,p) (5D, 7F)
 Ernie: Thresh=  0.10000D-02 Tol=  0.10000D-05 Strict=F.
   585 basis functions,   882 primitive gaussians,   619 cartesian basis functions
    68 alpha electrons       68 beta electrons
       nuclear repulsion energy      1314.2537849259 Hartrees.
 IExCor= 4336 DFT=T Ex+Corr=M062X ExCW=0 ScaHFX=  0.540000
 ScaDFX=  1.000000  1.000000  1.000000  1.000000 ScalE2=  1.000000  1.000000
 IRadAn=      5 IRanWt=     -1 IRanGd=            0 ICorTp=0 IEmpDi=131
 NAtoms=   38 NActive=   38 NUniq=   38 SFac= 1.00D+00 NAtFMM=   60 NAOKFM=F Big=F
 Integral buffers will be    131072 words long.
 Raffenetti 2 integral format.
 Two-electron integral symmetry is turned off.
 R6Disp:  Grimme-D3 Dispersion energy=       -0.0025159838 Hartrees.
 Nuclear repulsion after empirical dispersion term =     1314.2512689422 Hartrees.
 Leave Link  301 at Mon Feb 20 10:10:45 2023, MaxMem=  6710886400 cpu:               1.1 elap:               0.1
 (Enter /data0/home/software/g16/l302.exe)
 NPDir=0 NMtPBC=     1 NCelOv=     1 NCel=       1 NClECP=     1 NCelD=      1
         NCelK=      1 NCelE2=     1 NClLst=     1 CellRange=     0.0.
 One-electron integrals computed using PRISM.
 NBasis=   585 RedAO= T EigKep=  2.18D-06  NBF=   585
 NBsUse=   585 1.00D-06 EigRej= -1.00D+00 NBFU=   585
 Precomputing XC quadrature grid using
 IXCGrd= 4 IRadAn=           5 IRanWt=          -1 IRanGd=           0 AccXCQ= 0.00D+00.
 Generated NRdTot=       0 NPtTot=           0 NUsed=           0 NTot=          32
 NSgBfM=   605   605   605   605   605 MxSgAt=    38 MxSgA2=    38.
 Leave Link  302 at Mon Feb 20 10:10:45 2023, MaxMem=  6710886400 cpu:              16.1 elap:               0.7
 (Enter /data0/home/software/g16/l303.exe)
 DipDrv:  MaxL=1.
 Leave Link  303 at Mon Feb 20 10:10:45 2023, MaxMem=  6710886400 cpu:               1.5 elap:               0.1
 (Enter /data0/home/software/g16/l401.exe)
 ExpMin= 4.38D-02 ExpMax= 8.59D+03 ExpMxC= 1.30D+03 IAcc=3 IRadAn=         5 AccDes= 0.00D+00
 Harris functional with IExCor= 1009 and IRadAn=       5 diagonalized for initial guess.
 HarFok:  IExCor= 1009 AccDes= 0.00D+00 IRadAn=         5 IDoV= 1 UseB2=F ITyADJ=14
 ICtDFT=  3500011 ScaDFX=  1.000000  1.000000  1.000000  1.000000
 FoFCou: FMM=F IPFlag=           0 FMFlag=      100000 FMFlg1=           0
         NFxFlg=           0 DoJE=T BraDBF=F KetDBF=T FulRan=T
         wScrn=  0.000000 ICntrl=       500 IOpCl=  0 I1Cent=   200000004 NGrid=           0
         NMat0=    1 NMatS0=      1 NMatT0=    0 NMatD0=    1 NMtDS0=    0 NMtDT0=    0
 Symmetry not used in FoFCou.
 Harris En= -899.433064209522    
 JPrj=0 DoOrth=F DoCkMO=F.
 Leave Link  401 at Mon Feb 20 10:10:48 2023, MaxMem=  6710886400 cpu:              63.0 elap:               2.7
 (Enter /data0/home/software/g16/l502.exe)
 Two-electron integral symmetry not used.
 Closed shell SCF:
 Using DIIS extrapolation, IDIIS=  1040.
 NGot=  6710886400 LenX=  6710100777 LenY=  6709716997
 Requested convergence on RMS density matrix=1.00D-08 within 128 cycles.
 Requested convergence on MAX density matrix=1.00D-06.
 Requested convergence on             energy=1.00D-06.
 No special actions if energy rises.
 Fock matrices will be formed incrementally for  20 cycles.

 Cycle   1  Pass 1  IDiag  1:
 FoFJK:  IHMeth= 1 ICntrl=       0 DoSepK=F KAlg= 0 I1Cent=           0 FoldK=F
 IRaf= 810000000 NMat=       1 IRICut=       1 DoRegI=T DoRafI=F ISym2E= 0 IDoP0=0 IntGTp=1.
 FoFCou: FMM=F IPFlag=           0 FMFlag=      100000 FMFlg1=           0
         NFxFlg=           0 DoJE=F BraDBF=F KetDBF=F FulRan=T
         wScrn=  0.000000 ICntrl=         0 IOpCl=  0 I1Cent=           0 NGrid=           0
         NMat0=    1 NMatS0=      1 NMatT0=    0 NMatD0=    1 NMtDS0=    0 NMtDT0=    0
 Symmetry not used in FoFCou.
 E= -899.069982473088    
 DIIS: error= 3.74D-02 at cycle   1 NSaved=   1.
 NSaved= 1 IEnMin= 1 EnMin= -899.069982473088     IErMin= 1 ErrMin= 3.74D-02
 ErrMax= 3.74D-02  0.00D+00 EMaxC= 1.00D-01 BMatC= 9.53D-01 BMatP= 9.53D-01
 IDIUse=3 WtCom= 6.26D-01 WtEn= 3.74D-01
 Coeff-Com:  0.100D+01
 Coeff-En:   0.100D+01
 Coeff:      0.100D+01
 Gap=     0.239 Goal=   None    Shift=    0.000
 GapD=    0.239 DampG=1.000 DampE=0.500 DampFc=0.5000 IDamp=-1.
 Damping current iteration by 5.00D-01
 RMSDP=2.55D-02 MaxDP=6.59D+00              OVMax= 1.88D-01

 Cycle   2  Pass 1  IDiag  1:
 RMSU=  1.14D-02    CP:  1.34D+00
 E= -899.364434540338     Delta-E=       -0.294452067250 Rises=F Damp=T
 DIIS: error= 5.07D-03 at cycle   2 NSaved=   2.
 NSaved= 2 IEnMin= 2 EnMin= -899.364434540338     IErMin= 2 ErrMin= 5.07D-03
 ErrMax= 5.07D-03  0.00D+00 EMaxC= 1.00D-01 BMatC= 5.69D-02 BMatP= 9.53D-01
 IDIUse=3 WtCom= 9.49D-01 WtEn= 5.07D-02
 Coeff-Com:  0.186D-01 0.981D+00
 Coeff-En:   0.713D-01 0.929D+00
 Coeff:      0.212D-01 0.979D+00
 Gap=     0.227 Goal=   None    Shift=    0.000
 RMSDP=9.45D-03 MaxDP=2.19D+00 DE=-2.94D-01 OVMax= 1.22D-01

 Cycle   3  Pass 1  IDiag  1:
 RMSU=  3.86D-03    CP:  1.00D+00  4.25D-01
 E= -899.704249261220     Delta-E=       -0.339814720882 Rises=F Damp=F
 DIIS: error= 3.64D-03 at cycle   3 NSaved=   3.
 NSaved= 3 IEnMin= 3 EnMin= -899.704249261220     IErMin= 3 ErrMin= 3.64D-03
 ErrMax= 3.64D-03  0.00D+00 EMaxC= 1.00D-01 BMatC= 1.71D-02 BMatP= 5.69D-02
 IDIUse=3 WtCom= 9.64D-01 WtEn= 3.64D-02
 Coeff-Com: -0.516D-01 0.316D+00 0.735D+00
 Coeff-En:   0.000D+00 0.000D+00 0.100D+01
 Coeff:     -0.498D-01 0.305D+00 0.745D+00
 Gap=     0.206 Goal=   None    Shift=    0.000
 RMSDP=1.24D-03 MaxDP=2.33D-01 DE=-3.40D-01 OVMax= 3.50D-02

 Cycle   4  Pass 1  IDiag  1:
 RMSU=  9.66D-04    CP:  1.00D+00  4.93D-01  9.73D-01
 E= -899.713744080847     Delta-E=       -0.009494819627 Rises=F Damp=F
 DIIS: error= 2.08D-03 at cycle   4 NSaved=   4.
 NSaved= 4 IEnMin= 4 EnMin= -899.713744080847     IErMin= 4 ErrMin= 2.08D-03
 ErrMax= 2.08D-03  0.00D+00 EMaxC= 1.00D-01 BMatC= 4.88D-03 BMatP= 1.71D-02
 IDIUse=3 WtCom= 9.79D-01 WtEn= 2.08D-02
 Coeff-Com: -0.277D-01 0.771D-01 0.399D+00 0.552D+00
 Coeff-En:   0.000D+00 0.000D+00 0.224D+00 0.776D+00
 Coeff:     -0.271D-01 0.755D-01 0.395D+00 0.556D+00
 Gap=     0.206 Goal=   None    Shift=    0.000
 RMSDP=5.75D-04 MaxDP=1.21D-01 DE=-9.49D-03 OVMax= 1.69D-02

 Cycle   5  Pass 1  IDiag  1:
 RMSU=  2.52D-04    CP:  1.00D+00  4.61D-01  9.99D-01  6.38D-01
 E= -899.717920414214     Delta-E=       -0.004176333367 Rises=F Damp=F
 DIIS: error= 4.62D-04 at cycle   5 NSaved=   5.
 NSaved= 5 IEnMin= 5 EnMin= -899.717920414214     IErMin= 5 ErrMin= 4.62D-04
 ErrMax= 4.62D-04  0.00D+00 EMaxC= 1.00D-01 BMatC= 2.27D-04 BMatP= 4.88D-03
 IDIUse=3 WtCom= 9.95D-01 WtEn= 4.62D-03
 Coeff-Com: -0.964D-02 0.183D-01 0.142D+00 0.262D+00 0.588D+00
 Coeff-En:   0.000D+00 0.000D+00 0.000D+00 0.000D+00 0.100D+01
 Coeff:     -0.959D-02 0.183D-01 0.141D+00 0.261D+00 0.589D+00
 Gap=     0.206 Goal=   None    Shift=    0.000
 RMSDP=1.37D-04 MaxDP=3.05D-02 DE=-4.18D-03 OVMax= 4.27D-03

 Cycle   6  Pass 1  IDiag  1:
 RMSU=  6.86D-05    CP:  9.96D-01  4.62D-01  9.92D-01  7.23D-01  7.85D-01
 E= -899.718109364841     Delta-E=       -0.000188950627 Rises=F Damp=F
 DIIS: error= 9.73D-05 at cycle   6 NSaved=   6.
 NSaved= 6 IEnMin= 6 EnMin= -899.718109364841     IErMin= 6 ErrMin= 9.73D-05
 ErrMax= 9.73D-05  0.00D+00 EMaxC= 1.00D-01 BMatC= 1.38D-05 BMatP= 2.27D-04
 IDIUse=1 WtCom= 1.00D+00 WtEn= 0.00D+00
 Coeff-Com: -0.123D-02 0.309D-03 0.202D-01 0.529D-01 0.234D+00 0.694D+00
 Coeff:     -0.123D-02 0.309D-03 0.202D-01 0.529D-01 0.234D+00 0.694D+00
 Gap=     0.206 Goal=   None    Shift=    0.000
 RMSDP=2.81D-05 MaxDP=3.65D-03 DE=-1.89D-04 OVMax= 9.57D-04

 Cycle   7  Pass 1  IDiag  1:
 RMSU=  2.40D-05    CP:  9.96D-01  4.62D-01  9.95D-01  7.25D-01  8.05D-01
                    CP:  9.92D-01
 E= -899.718121903848     Delta-E=       -0.000012539007 Rises=F Damp=F
 DIIS: error= 3.18D-05 at cycle   7 NSaved=   7.
 NSaved= 7 IEnMin= 7 EnMin= -899.718121903848     IErMin= 7 ErrMin= 3.18D-05
 ErrMax= 3.18D-05  0.00D+00 EMaxC= 1.00D-01 BMatC= 1.62D-06 BMatP= 1.38D-05
 IDIUse=1 WtCom= 1.00D+00 WtEn= 0.00D+00
 Coeff-Com:  0.714D-03-0.203D-02-0.866D-02-0.984D-02 0.264D-01 0.275D+00
 Coeff-Com:  0.718D+00
 Coeff:      0.714D-03-0.203D-02-0.866D-02-0.984D-02 0.264D-01 0.275D+00
 Coeff:      0.718D+00
 Gap=     0.207 Goal=   None    Shift=    0.000
 RMSDP=2.28D-05 MaxDP=6.04D-03 DE=-1.25D-05 OVMax= 3.62D-04

 Cycle   8  Pass 1  IDiag  1:
 RMSU=  8.26D-06    CP:  9.96D-01  4.60D-01  9.95D-01  7.25D-01  8.16D-01
                    CP:  1.04D+00  1.02D+00
 E= -899.718123332812     Delta-E=       -0.000001428964 Rises=F Damp=F
 DIIS: error= 1.68D-05 at cycle   8 NSaved=   8.
 NSaved= 8 IEnMin= 8 EnMin= -899.718123332812     IErMin= 8 ErrMin= 1.68D-05
 ErrMax= 1.68D-05  0.00D+00 EMaxC= 1.00D-01 BMatC= 2.59D-07 BMatP= 1.62D-06
 IDIUse=1 WtCom= 1.00D+00 WtEn= 0.00D+00
 Coeff-Com:  0.475D-03-0.968D-03-0.640D-02-0.113D-01-0.178D-01 0.324D-01
 Coeff-Com:  0.327D+00 0.677D+00
 Coeff:      0.475D-03-0.968D-03-0.640D-02-0.113D-01-0.178D-01 0.324D-01
 Coeff:      0.327D+00 0.677D+00
 Gap=     0.207 Goal=   None    Shift=    0.000
 RMSDP=5.78D-06 MaxDP=1.07D-03 DE=-1.43D-06 OVMax= 1.13D-04

 Cycle   9  Pass 1  IDiag  1:
 RMSU=  3.03D-06    CP:  9.96D-01  4.60D-01  9.95D-01  7.25D-01  8.16D-01
                    CP:  1.06D+00  1.03D+00  1.01D+00
 E= -899.718123566716     Delta-E=       -0.000000233904 Rises=F Damp=F
 DIIS: error= 3.69D-06 at cycle   9 NSaved=   9.
 NSaved= 9 IEnMin= 9 EnMin= -899.718123566716     IErMin= 9 ErrMin= 3.69D-06
 ErrMax= 3.69D-06  0.00D+00 EMaxC= 1.00D-01 BMatC= 1.85D-08 BMatP= 2.59D-07
 IDIUse=1 WtCom= 1.00D+00 WtEn= 0.00D+00
 Coeff-Com:  0.114D-03-0.199D-03-0.170D-02-0.345D-02-0.799D-02-0.685D-02
 Coeff-Com:  0.687D-01 0.261D+00 0.690D+00
 Coeff:      0.114D-03-0.199D-03-0.170D-02-0.345D-02-0.799D-02-0.685D-02
 Coeff:      0.687D-01 0.261D+00 0.690D+00
 Gap=     0.207 Goal=   None    Shift=    0.000
 RMSDP=2.17D-06 MaxDP=4.86D-04 DE=-2.34D-07 OVMax= 6.03D-05

 Cycle  10  Pass 1  IDiag  1:
 RMSU=  9.99D-07    CP:  9.96D-01  4.60D-01  9.95D-01  7.24D-01  8.16D-01
                    CP:  1.06D+00  1.04D+00  1.07D+00  9.86D-01
 E= -899.718123582452     Delta-E=       -0.000000015737 Rises=F Damp=F
 DIIS: error= 1.62D-06 at cycle  10 NSaved=  10.
 NSaved=10 IEnMin=10 EnMin= -899.718123582452     IErMin=10 ErrMin= 1.62D-06
 ErrMax= 1.62D-06  0.00D+00 EMaxC= 1.00D-01 BMatC= 4.89D-09 BMatP= 1.85D-08
 IDIUse=1 WtCom= 1.00D+00 WtEn= 0.00D+00
 Coeff-Com: -0.104D-04 0.326D-04 0.327D-05-0.228D-03-0.174D-02-0.881D-02
 Coeff-Com: -0.141D-01 0.377D-01 0.365D+00 0.622D+00
 Coeff:     -0.104D-04 0.326D-04 0.327D-05-0.228D-03-0.174D-02-0.881D-02
 Coeff:     -0.141D-01 0.377D-01 0.365D+00 0.622D+00
 Gap=     0.207 Goal=   None    Shift=    0.000
 RMSDP=5.83D-07 MaxDP=1.19D-04 DE=-1.57D-08 OVMax= 1.93D-05

 Cycle  11  Pass 1  IDiag  1:
 RMSU=  3.08D-07    CP:  9.96D-01  4.60D-01  9.95D-01  7.24D-01  8.15D-01
                    CP:  1.06D+00  1.04D+00  1.09D+00  1.05D+00  1.10D+00
 E= -899.718123586340     Delta-E=       -0.000000003887 Rises=F Damp=F
 DIIS: error= 7.26D-07 at cycle  11 NSaved=  11.
 NSaved=11 IEnMin=11 EnMin= -899.718123586340     IErMin=11 ErrMin= 7.26D-07
 ErrMax= 7.26D-07  0.00D+00 EMaxC= 1.00D-01 BMatC= 5.65D-10 BMatP= 4.89D-09
 IDIUse=1 WtCom= 1.00D+00 WtEn= 0.00D+00
 Coeff-Com: -0.222D-04 0.464D-04 0.248D-03 0.387D-03 0.339D-03-0.323D-02
 Coeff-Com: -0.179D-01-0.204D-01 0.835D-01 0.300D+00 0.657D+00
 Coeff:     -0.222D-04 0.464D-04 0.248D-03 0.387D-03 0.339D-03-0.323D-02
 Coeff:     -0.179D-01-0.204D-01 0.835D-01 0.300D+00 0.657D+00
 Gap=     0.207 Goal=   None    Shift=    0.000
 RMSDP=3.54D-07 MaxDP=8.93D-05 DE=-3.89D-09 OVMax= 1.07D-05

 Cycle  12  Pass 1  IDiag  1:
 RMSU=  1.15D-07    CP:  9.95D-01  4.60D-01  9.95D-01  7.24D-01  8.15D-01
                    CP:  1.06D+00  1.04D+00  1.11D+00  1.07D+00  1.15D+00
                    CP:  1.05D+00
 E= -899.718123586909     Delta-E=       -0.000000000569 Rises=F Damp=F
 DIIS: error= 1.65D-07 at cycle  12 NSaved=  12.
 NSaved=12 IEnMin=12 EnMin= -899.718123586909     IErMin=12 ErrMin= 1.65D-07
 ErrMax= 1.65D-07  0.00D+00 EMaxC= 1.00D-01 BMatC= 5.41D-11 BMatP= 5.65D-10
 IDIUse=1 WtCom= 1.00D+00 WtEn= 0.00D+00
 Coeff-Com: -0.647D-05 0.129D-04 0.894D-04 0.164D-03 0.312D-03-0.175D-03
 Coeff-Com: -0.488D-02-0.109D-01-0.868D-02 0.229D-01 0.251D+00 0.750D+00
 Coeff:     -0.647D-05 0.129D-04 0.894D-04 0.164D-03 0.312D-03-0.175D-03
 Coeff:     -0.488D-02-0.109D-01-0.868D-02 0.229D-01 0.251D+00 0.750D+00
 Gap=     0.207 Goal=   None    Shift=    0.000
 RMSDP=1.67D-07 MaxDP=4.69D-05 DE=-5.69D-10 OVMax= 4.43D-06

 Cycle  13  Pass 1  IDiag  1:
 RMSU=  6.07D-08    CP:  9.95D-01  4.60D-01  9.95D-01  7.24D-01  8.15D-01
                    CP:  1.06D+00  1.04D+00  1.11D+00  1.07D+00  1.19D+00
                    CP:  1.19D+00  1.17D+00
 E= -899.718123586962     Delta-E=       -0.000000000053 Rises=F Damp=F
 DIIS: error= 4.04D-08 at cycle  13 NSaved=  13.
 NSaved=13 IEnMin=13 EnMin= -899.718123586962     IErMin=13 ErrMin= 4.04D-08
 ErrMax= 4.04D-08  0.00D+00 EMaxC= 1.00D-01 BMatC= 3.81D-12 BMatP= 5.41D-11
 IDIUse=1 WtCom= 1.00D+00 WtEn= 0.00D+00
 Coeff-Com:  0.144D-05-0.287D-05-0.794D-05-0.891D-05 0.261D-04 0.338D-03
 Coeff-Com:  0.859D-03-0.435D-04-0.112D-01-0.350D-01-0.125D-01 0.170D+00
 Coeff-Com:  0.887D+00
 Coeff:      0.144D-05-0.287D-05-0.794D-05-0.891D-05 0.261D-04 0.338D-03
 Coeff:      0.859D-03-0.435D-04-0.112D-01-0.350D-01-0.125D-01 0.170D+00
 Coeff:      0.887D+00
 Gap=     0.207 Goal=   None    Shift=    0.000
 RMSDP=4.62D-08 MaxDP=1.10D-05 DE=-5.28D-11 OVMax= 2.09D-06

 Cycle  14  Pass 1  IDiag  1:
 RMSU=  1.68D-08    CP:  9.95D-01  4.60D-01  9.95D-01  7.24D-01  8.15D-01
                    CP:  1.06D+00  1.04D+00  1.11D+00  1.07D+00  1.20D+00
                    CP:  1.24D+00  1.25D+00  1.20D+00
 E= -899.718123586917     Delta-E=        0.000000000045 Rises=F Damp=F
 DIIS: error= 2.48D-08 at cycle  14 NSaved=  14.
 NSaved=14 IEnMin=13 EnMin= -899.718123586962     IErMin=14 ErrMin= 2.48D-08
 ErrMax= 2.48D-08  0.00D+00 EMaxC= 1.00D-01 BMatC= 6.57D-13 BMatP= 3.81D-12
 IDIUse=1 WtCom= 1.00D+00 WtEn= 0.00D+00
 Coeff-Com:  0.123D-05-0.246D-05-0.118D-04-0.192D-04-0.200D-04 0.159D-03
 Coeff-Com:  0.818D-03 0.106D-02-0.316D-02-0.161D-01-0.295D-01-0.195D-01
 Coeff-Com:  0.325D+00 0.741D+00
 Coeff:      0.123D-05-0.246D-05-0.118D-04-0.192D-04-0.200D-04 0.159D-03
 Coeff:      0.818D-03 0.106D-02-0.316D-02-0.161D-01-0.295D-01-0.195D-01
 Coeff:      0.325D+00 0.741D+00
 Gap=     0.207 Goal=   None    Shift=    0.000
 RMSDP=1.65D-08 MaxDP=4.13D-06 DE= 4.46D-11 OVMax= 6.75D-07

 Cycle  15  Pass 1  IDiag  1:
 RMSU=  5.96D-09    CP:  9.95D-01  4.60D-01  9.95D-01  7.24D-01  8.15D-01
                    CP:  1.06D+00  1.04D+00  1.11D+00  1.07D+00  1.20D+00
                    CP:  1.26D+00  1.31D+00  1.35D+00  1.05D+00
 E= -899.718123586963     Delta-E=       -0.000000000046 Rises=F Damp=F
 DIIS: error= 9.14D-09 at cycle  15 NSaved=  15.
 NSaved=15 IEnMin=15 EnMin= -899.718123586963     IErMin=15 ErrMin= 9.14D-09
 ErrMax= 9.14D-09  0.00D+00 EMaxC= 1.00D-01 BMatC= 8.95D-14 BMatP= 6.57D-13
 IDIUse=1 WtCom= 1.00D+00 WtEn= 0.00D+00
 Coeff-Com:  0.137D-06-0.305D-06-0.237D-05-0.431D-05-0.936D-05 0.246D-05
 Coeff-Com:  0.128D-03 0.312D-03 0.752D-03-0.847D-05-0.676D-02-0.315D-01
 Coeff-Com: -0.287D-01 0.256D+00 0.810D+00
 Coeff:      0.137D-06-0.305D-06-0.237D-05-0.431D-05-0.936D-05 0.246D-05
 Coeff:      0.128D-03 0.312D-03 0.752D-03-0.847D-05-0.676D-02-0.315D-01
 Coeff:     -0.287D-01 0.256D+00 0.810D+00
 Gap=     0.207 Goal=   None    Shift=    0.000
 RMSDP=4.25D-09 MaxDP=5.26D-07 DE=-4.64D-11 OVMax= 2.72D-07

 SCF Done:  E(RM062X) =  -899.718123587     A.U. after   15 cycles
            NFock= 15  Conv=0.43D-08     -V/T= 2.0039
 KE= 8.962157620439D+02 PE=-4.736337419649D+03 EE= 1.626152265076D+03
 Leave Link  502 at Mon Feb 20 10:13:07 2023, MaxMem=  6710886400 cpu:            3329.9 elap:             139.2
 (Enter /data0/home/software/g16/l601.exe)
 Copying SCF densities to generalized density rwf, IOpCl= 0 IROHF=0.

 **********************************************************************

            Population analysis using the SCF density.

 **********************************************************************

 Alpha  occ. eigenvalues --  -19.67983 -19.62487 -19.56768 -19.54885 -19.53053
 Alpha  occ. eigenvalues --  -19.52815 -14.88877 -10.65200 -10.64552 -10.61950
 Alpha  occ. eigenvalues --  -10.61458 -10.60848 -10.60381 -10.59383 -10.56958
 Alpha  occ. eigenvalues --  -10.55689 -10.51947  -1.18986  -1.16217  -1.13735
 Alpha  occ. eigenvalues --   -1.12584  -1.08169  -1.05601  -1.02535  -0.98843
 Alpha  occ. eigenvalues --   -0.93547  -0.90478  -0.84393  -0.82293  -0.77044
 Alpha  occ. eigenvalues --   -0.74934  -0.69917  -0.66340  -0.65184  -0.63195
 Alpha  occ. eigenvalues --   -0.61204  -0.60264  -0.58368  -0.57346  -0.56530
 Alpha  occ. eigenvalues --   -0.55190  -0.54187  -0.53733  -0.53222  -0.53147
 Alpha  occ. eigenvalues --   -0.50875  -0.50140  -0.49906  -0.49510  -0.48704
 Alpha  occ. eigenvalues --   -0.47656  -0.46664  -0.45887  -0.45425  -0.44627
 Alpha  occ. eigenvalues --   -0.43617  -0.43069  -0.41865  -0.40684  -0.40279
 Alpha  occ. eigenvalues --   -0.39604  -0.38552  -0.34785  -0.34696  -0.32756
 Alpha  occ. eigenvalues --   -0.28838  -0.28333  -0.27763
 Alpha virt. eigenvalues --   -0.07106  -0.03457  -0.01668  -0.00446   0.00554
 Alpha virt. eigenvalues --    0.01567   0.02019   0.02365   0.02972   0.03698
 Alpha virt. eigenvalues --    0.04244   0.04654   0.05115   0.06437   0.06731
 Alpha virt. eigenvalues --    0.06856   0.07726   0.07812   0.08884   0.08920
 Alpha virt. eigenvalues --    0.09525   0.10204   0.10312   0.10731   0.10948
 Alpha virt. eigenvalues --    0.11621   0.12014   0.12515   0.12870   0.13535
 Alpha virt. eigenvalues --    0.13674   0.14063   0.14365   0.15072   0.15504
 Alpha virt. eigenvalues --    0.15773   0.16267   0.16334   0.16703   0.16741
 Alpha virt. eigenvalues --    0.17413   0.17605   0.17889   0.18275   0.18865
 Alpha virt. eigenvalues --    0.19491   0.19724   0.20258   0.20301   0.20782
 Alpha virt. eigenvalues --    0.20917   0.21231   0.21527   0.21869   0.22250
 Alpha virt. eigenvalues --    0.22812   0.23060   0.23568   0.24038   0.24369
 Alpha virt. eigenvalues --    0.24655   0.24988   0.25259   0.25452   0.25805
 Alpha virt. eigenvalues --    0.25977   0.26665   0.27214   0.27373   0.27975
 Alpha virt. eigenvalues --    0.28076   0.28422   0.29243   0.29589   0.30210
 Alpha virt. eigenvalues --    0.30728   0.31139   0.31345   0.31826   0.32310
 Alpha virt. eigenvalues --    0.32663   0.32754   0.33653   0.34351   0.34715
 Alpha virt. eigenvalues --    0.35320   0.35522   0.36007   0.36209   0.37301
 Alpha virt. eigenvalues --    0.37622   0.38477   0.39059   0.39657   0.40833
 Alpha virt. eigenvalues --    0.41711   0.42516   0.43459   0.43726   0.45250
 Alpha virt. eigenvalues --    0.46253   0.46444   0.47371   0.48119   0.48384
 Alpha virt. eigenvalues --    0.49393   0.50490   0.50609   0.51845   0.52163
 Alpha virt. eigenvalues --    0.52778   0.53599   0.54545   0.54960   0.55177
 Alpha virt. eigenvalues --    0.55737   0.56553   0.57278   0.58192   0.58718
 Alpha virt. eigenvalues --    0.59224   0.60158   0.60737   0.61074   0.61715
 Alpha virt. eigenvalues --    0.62421   0.62629   0.63184   0.63843   0.63955
 Alpha virt. eigenvalues --    0.64790   0.65455   0.65783   0.66458   0.67286
 Alpha virt. eigenvalues --    0.68280   0.68595   0.69008   0.69156   0.69606
 Alpha virt. eigenvalues --    0.70170   0.70543   0.71474   0.72417   0.73025
 Alpha virt. eigenvalues --    0.73704   0.74271   0.74613   0.75749   0.76202
 Alpha virt. eigenvalues --    0.76651   0.77913   0.78688   0.79186   0.79910
 Alpha virt. eigenvalues --    0.81198   0.81360   0.81993   0.82640   0.82961
 Alpha virt. eigenvalues --    0.84058   0.84292   0.85243   0.86652   0.87237
 Alpha virt. eigenvalues --    0.88699   0.89400   0.91446   0.92213   0.93330
 Alpha virt. eigenvalues --    0.94875   0.96686   0.97141   0.97921   0.99012
 Alpha virt. eigenvalues --    1.00889   1.02252   1.03812   1.04120   1.04456
 Alpha virt. eigenvalues --    1.05382   1.06402   1.06705   1.07498   1.08634
 Alpha virt. eigenvalues --    1.09664   1.09933   1.10596   1.11121   1.12102
 Alpha virt. eigenvalues --    1.13824   1.13924   1.14820   1.15552   1.15810
 Alpha virt. eigenvalues --    1.16727   1.17206   1.17386   1.18517   1.19651
 Alpha virt. eigenvalues --    1.20013   1.20889   1.21512   1.22640   1.23573
 Alpha virt. eigenvalues --    1.24405   1.24832   1.25842   1.25949   1.26853
 Alpha virt. eigenvalues --    1.27478   1.28477   1.28705   1.29427   1.30461
 Alpha virt. eigenvalues --    1.31163   1.31983   1.32155   1.33320   1.33975
 Alpha virt. eigenvalues --    1.34743   1.35390   1.36253   1.36740   1.38182
 Alpha virt. eigenvalues --    1.38499   1.38745   1.39922   1.40475   1.40915
 Alpha virt. eigenvalues --    1.42057   1.42358   1.43082   1.43253   1.44108
 Alpha virt. eigenvalues --    1.45037   1.46266   1.46612   1.47270   1.47776
 Alpha virt. eigenvalues --    1.48923   1.49644   1.50935   1.52048   1.54224
 Alpha virt. eigenvalues --    1.54394   1.55494   1.56267   1.57322   1.57714
 Alpha virt. eigenvalues --    1.60984   1.61404   1.63087   1.65734   1.68069
 Alpha virt. eigenvalues --    1.69502   1.69904   1.71412   1.72888   1.73528
 Alpha virt. eigenvalues --    1.74620   1.75362   1.75756   1.77251   1.77735
 Alpha virt. eigenvalues --    1.79133   1.80305   1.81317   1.81779   1.82754
 Alpha virt. eigenvalues --    1.82933   1.83769   1.85017   1.85884   1.86581
 Alpha virt. eigenvalues --    1.87991   1.88565   1.90320   1.91581   1.93161
 Alpha virt. eigenvalues --    1.93953   1.94560   1.95760   1.96661   1.99575
 Alpha virt. eigenvalues --    2.01329   2.01498   2.03020   2.07142   2.09181
 Alpha virt. eigenvalues --    2.09754   2.10916   2.11119   2.12868   2.14093
 Alpha virt. eigenvalues --    2.14433   2.14462   2.15701   2.16117   2.18522
 Alpha virt. eigenvalues --    2.20526   2.21363   2.21382   2.22208   2.22568
 Alpha virt. eigenvalues --    2.25545   2.26836   2.27328   2.31770   2.32685
 Alpha virt. eigenvalues --    2.33007   2.33357   2.34714   2.35952   2.37079
 Alpha virt. eigenvalues --    2.37672   2.38385   2.39005   2.40629   2.43197
 Alpha virt. eigenvalues --    2.44387   2.45830   2.47922   2.49718   2.51016
 Alpha virt. eigenvalues --    2.52271   2.54192   2.54801   2.55929   2.57545
 Alpha virt. eigenvalues --    2.58361   2.61089   2.63164   2.63481   2.65212
 Alpha virt. eigenvalues --    2.66424   2.67042   2.68126   2.69901   2.70064
 Alpha virt. eigenvalues --    2.71503   2.71978   2.74135   2.76277   2.77931
 Alpha virt. eigenvalues --    2.81077   2.82516   2.83565   2.85062   2.86553
 Alpha virt. eigenvalues --    2.88090   2.89304   2.89490   2.91146   2.92293
 Alpha virt. eigenvalues --    2.93660   2.95055   2.96393   2.96505   2.98812
 Alpha virt. eigenvalues --    3.00509   3.01840   3.04107   3.06077   3.06688
 Alpha virt. eigenvalues --    3.09140   3.10844   3.12459   3.13910   3.15685
 Alpha virt. eigenvalues --    3.16492   3.17366   3.18091   3.18771   3.21259
 Alpha virt. eigenvalues --    3.23059   3.23246   3.25037   3.29098   3.29536
 Alpha virt. eigenvalues --    3.30769   3.32322   3.34601   3.35437   3.38467
 Alpha virt. eigenvalues --    3.39492   3.40586   3.41895   3.42545   3.43993
 Alpha virt. eigenvalues --    3.46099   3.46205   3.47731   3.48912   3.50722
 Alpha virt. eigenvalues --    3.52311   3.52879   3.54878   3.54991   3.56903
 Alpha virt. eigenvalues --    3.57830   3.60124   3.61426   3.61939   3.63192
 Alpha virt. eigenvalues --    3.63475   3.64203   3.65057   3.66169   3.67080
 Alpha virt. eigenvalues --    3.68687   3.70388   3.71062   3.71957   3.73933
 Alpha virt. eigenvalues --    3.75305   3.76303   3.78643   3.79661   3.80783
 Alpha virt. eigenvalues --    3.82766   3.83437   3.87052   3.91192   3.91749
 Alpha virt. eigenvalues --    3.95507   3.99444   4.01954   4.04232   4.04658
 Alpha virt. eigenvalues --    4.06464   4.12757   4.16781   4.19330   4.21991
 Alpha virt. eigenvalues --    4.26057   4.27102   4.27710   4.42431   4.44830
 Alpha virt. eigenvalues --    4.50983   4.53973   4.62597   4.70888   4.95631
 Alpha virt. eigenvalues --    5.02302   5.05696   5.11027   5.12093   5.15820
 Alpha virt. eigenvalues --    5.19886   5.22767   5.29516   5.37397   5.39368
 Alpha virt. eigenvalues --    5.45499   5.47072   5.52008   5.52726   5.56708
 Alpha virt. eigenvalues --    5.56912   5.61066   5.62096   5.76309   5.89551
 Alpha virt. eigenvalues --    5.94750   6.00017   6.00525   6.01490   6.28758
 Alpha virt. eigenvalues --    6.75449   6.77054   6.82686   6.85094   6.86017
 Alpha virt. eigenvalues --    6.86168   6.87267   6.87836   6.88606   6.89803
 Alpha virt. eigenvalues --    6.91291   6.92190   6.95401   6.96494   6.97893
 Alpha virt. eigenvalues --    6.98617   6.99519   7.00417   7.02042   7.06389
 Alpha virt. eigenvalues --    7.07094   7.14778   7.17557   7.17705   7.22035
 Alpha virt. eigenvalues --    7.23486   7.26443   7.31910   7.35447   7.43624
 Alpha virt. eigenvalues --   23.81582  23.97336  23.98988  24.04323  24.06618
 Alpha virt. eigenvalues --   24.07252  24.08808  24.10764  24.23484  24.28440
 Alpha virt. eigenvalues --   35.68060  49.96354  50.05831  50.06873  50.09878
 Alpha virt. eigenvalues --   50.19718  50.24478
          Condensed to atoms (all electrons):
               1          2          3          4          5          6
     1  C   12.021128  -3.519108  -0.017839  -0.203467  -1.420289  -0.002282
     2  C   -3.519108   9.153618  -1.334403   0.788591   0.226725  -0.010645
     3  C   -0.017839  -1.334403   9.704350  -3.003236   1.275664   0.352329
     4  C   -0.203467   0.788591  -3.003236  11.008406  -3.164348   0.007238
     5  C   -1.420289   0.226725   1.275664  -3.164348   8.992630  -0.003204
     6  H   -0.002282  -0.010645   0.352329   0.007238  -0.003204   0.494947
     7  H    0.374166   0.013001   0.026995  -0.007233   0.005067  -0.000167
     8  H   -0.007937   0.003378   0.034554   0.301720   0.010361  -0.003638
     9  H    0.017322  -0.006642   0.002362  -0.022942   0.420326  -0.000174
    10  C   -0.273478  -0.335879   0.068960  -0.102486   0.076390  -0.000648
    11  H   -0.052360  -0.156854   0.100563   0.013142   0.016869   0.002608
    12  H    0.143121  -0.123658  -0.086685   0.002186  -0.002898   0.000048
    13  H   -0.091141   0.068299   0.010934  -0.000873  -0.003651   0.000248
    14  N   -0.150009   0.224217  -0.222684   0.090944   0.202369   0.001641
    15  C   -0.005081  -0.094114  -0.111078  -0.144268   0.010424   0.000315
    16  H   -0.006015   0.008289  -0.001310  -0.000897  -0.010909  -0.000000
    17  H    0.012768   0.011356   0.002360  -0.010438  -0.013165  -0.000002
    18  C    0.056012  -0.042821  -0.105817   0.297822  -0.292193  -0.000008
    19  H   -0.002212   0.001323   0.001524  -0.059170   0.028386   0.000002
    20  H   -0.000802   0.000958   0.001509  -0.005284   0.006630   0.000000
    21  C   -0.180804   0.150625   0.068237  -0.151412   0.193390   0.000117
    22  H   -0.004742   0.001933  -0.000234   0.000050   0.000667  -0.000000
    23  H    0.001248  -0.005165  -0.000823   0.000251  -0.004190   0.000000
    24  C   -0.015904  -0.047543  -0.055181   0.081213  -0.058455  -0.000182
    25  O    0.010138  -0.008535   0.002039  -0.006717   0.002813   0.000001
    26  O   -0.219211   0.144990  -0.022668   0.005531  -0.001096   0.000040
    27  O   -0.004149   0.001963  -0.002009   0.001496  -0.001119   0.000000
    28  H    0.003184  -0.001434   0.001436  -0.001045   0.000758  -0.000000
    29  H    0.000519  -0.000235   0.000066  -0.000027   0.000003  -0.000000
    30  O   -0.005563  -0.002105  -0.073966   0.092536   0.011813   0.000049
    31  H    0.000419   0.001197   0.038553  -0.028558  -0.009650  -0.000137
    32  H   -0.001111  -0.001409   0.008168  -0.011227   0.006156   0.000024
    33  O   -0.004126   0.000707   0.001545   0.000098  -0.000135   0.000001
    34  H    0.000411  -0.000600   0.000049  -0.000002  -0.000025   0.000000
    35  H   -0.000307   0.000186   0.000500  -0.000164   0.000144  -0.000000
    36  O    0.024525   0.012549  -0.200349   0.377987  -0.248519   0.000096
    37  H   -0.009234   0.002290   0.010909  -0.030340   0.037219  -0.000008
    38  H    0.001832   0.008660   0.054116  -0.025148  -0.027527  -0.000020
               7          8          9         10         11         12
     1  C    0.374166  -0.007937   0.017322  -0.273478  -0.052360   0.143121
     2  C    0.013001   0.003378  -0.006642  -0.335879  -0.156854  -0.123658
     3  C    0.026995   0.034554   0.002362   0.068960   0.100563  -0.086685
     4  C   -0.007233   0.301720  -0.022942  -0.102486   0.013142   0.002186
     5  C    0.005067   0.010361   0.420326   0.076390   0.016869  -0.002898
     6  H   -0.000167  -0.003638  -0.000174  -0.000648   0.002608   0.000048
     7  H    0.446417   0.000021  -0.000118  -0.004732  -0.000072   0.000599
     8  H    0.000021   0.464156  -0.001735   0.000132  -0.000005   0.000006
     9  H   -0.000118  -0.001735   0.460785   0.000458  -0.000004   0.000002
    10  C   -0.004732   0.000132   0.000458   6.249002   0.438851   0.432804
    11  H   -0.000072  -0.000005  -0.000004   0.438851   0.514521  -0.021314
    12  H    0.000599   0.000006   0.000002   0.432804  -0.021314   0.471429
    13  H    0.000722   0.000006  -0.000002   0.376101  -0.023200  -0.026429
    14  N   -0.057129   0.008771  -0.063216  -0.043706   0.000213   0.000951
    15  C   -0.008848   0.001833   0.019181  -0.017161   0.001118   0.002181
    16  H    0.000691  -0.000007   0.000566  -0.000085  -0.000001   0.000002
    17  H    0.005078   0.000020   0.000302   0.001733  -0.000000   0.000012
    18  C    0.011294  -0.000377  -0.011190  -0.019127  -0.000238  -0.000233
    19  H    0.000107   0.000188   0.001959   0.000780  -0.000000   0.000002
    20  H   -0.000095   0.000002  -0.000333  -0.000078   0.000000   0.000000
    21  C   -0.008468  -0.000126   0.001405   0.054879   0.000043  -0.000066
    22  H    0.000040  -0.000000   0.000029  -0.000022   0.000000   0.000000
    23  H   -0.000246   0.000000  -0.000020   0.000073  -0.000000  -0.000001
    24  C    0.012030   0.000599   0.000145  -0.068830  -0.000121   0.000316
    25  O   -0.000856  -0.000005  -0.000001   0.003408   0.000000   0.000056
    26  O   -0.017537  -0.000113  -0.000212   0.007834   0.000100   0.000275
    27  O    0.000045  -0.000000   0.000000   0.000212  -0.000001   0.000000
    28  H   -0.000032   0.000000  -0.000000  -0.000180   0.000001   0.000001
    29  H   -0.000001   0.000000  -0.000000  -0.000037   0.000000  -0.000000
    30  O    0.000002  -0.013825  -0.000074   0.000007   0.000021   0.000002
    31  H   -0.000003   0.001160  -0.000066  -0.000339  -0.000018   0.000000
    32  H   -0.000000   0.001331  -0.000028  -0.000130  -0.000000   0.000000
    33  O    0.000009  -0.000000   0.000000   0.001809  -0.000022  -0.000097
    34  H   -0.000003  -0.000000  -0.000000   0.000618  -0.000006  -0.000050
    35  H   -0.000003   0.000000  -0.000000  -0.000152   0.000001  -0.000002
    36  O    0.000044  -0.011772  -0.027078  -0.001296  -0.000006  -0.000032
    37  H    0.000007   0.000733   0.001483   0.000360   0.000002   0.000007
    38  H    0.000006   0.003231   0.001786   0.001244   0.000002   0.000001
              13         14         15         16         17         18
     1  C   -0.091141  -0.150009  -0.005081  -0.006015   0.012768   0.056012
     2  C    0.068299   0.224217  -0.094114   0.008289   0.011356  -0.042821
     3  C    0.010934  -0.222684  -0.111078  -0.001310   0.002360  -0.105817
     4  C   -0.000873   0.090944  -0.144268  -0.000897  -0.010438   0.297822
     5  C   -0.003651   0.202369   0.010424  -0.010909  -0.013165  -0.292193
     6  H    0.000248   0.001641   0.000315  -0.000000  -0.000002  -0.000008
     7  H    0.000722  -0.057129  -0.008848   0.000691   0.005078   0.011294
     8  H    0.000006   0.008771   0.001833  -0.000007   0.000020  -0.000377
     9  H   -0.000002  -0.063216   0.019181   0.000566   0.000302  -0.011190
    10  C    0.376101  -0.043706  -0.017161  -0.000085   0.001733  -0.019127
    11  H   -0.023200   0.000213   0.001118  -0.000001  -0.000000  -0.000238
    12  H   -0.026429   0.000951   0.002181   0.000002   0.000012  -0.000233
    13  H    0.498031  -0.000350  -0.001749  -0.000002   0.000001   0.000572
    14  N   -0.000350   6.331441   0.094857  -0.022225  -0.076370   0.003714
    15  C   -0.001749   0.094857   6.278721   0.409273   0.510221  -0.282882
    16  H   -0.000002  -0.022225   0.409273   0.508137  -0.027056  -0.063203
    17  H    0.000001  -0.076370   0.510221  -0.027056   0.461516  -0.055982
    18  C    0.000572   0.003714  -0.282882  -0.063203  -0.055982   6.151434
    19  H   -0.000001   0.009034  -0.001414   0.000175   0.003244   0.393958
    20  H   -0.000000  -0.000902  -0.016592  -0.010791   0.002501   0.411866
    21  C   -0.000463   0.039827  -0.192224   0.042493  -0.042456  -0.724570
    22  H    0.000000  -0.001638   0.030834  -0.000185   0.000360  -0.057081
    23  H    0.000000   0.006677  -0.018790  -0.000654   0.000988   0.004447
    24  C    0.000474  -0.026766   0.019497  -0.013299   0.028800   0.513770
    25  O   -0.000002  -0.000103   0.012942   0.000027  -0.000761  -0.031525
    26  O   -0.000183   0.037995  -0.032078   0.004160  -0.007313  -0.030196
    27  O    0.000000   0.000289  -0.003361   0.000001   0.000006   0.007046
    28  H   -0.000000  -0.000399   0.002865  -0.000001  -0.000005  -0.004838
    29  H    0.000000  -0.000037  -0.000061  -0.000000  -0.000000   0.001030
    30  O   -0.000002  -0.003612   0.000633  -0.000005  -0.000001   0.001072
    31  H    0.000001   0.001626   0.000370  -0.000001  -0.000000  -0.000213
    32  H    0.000000   0.000284   0.000111  -0.000000   0.000000  -0.000116
    33  O   -0.000002   0.000107  -0.000164   0.000000   0.000000   0.000188
    34  H    0.000000   0.000003  -0.000057   0.000000   0.000000   0.000008
    35  H   -0.000000   0.000006   0.000103   0.000000  -0.000000  -0.000346
    36  O    0.000013   0.003683   0.004154  -0.000327  -0.000519   0.024733
    37  H   -0.000001  -0.002961  -0.005788   0.000040   0.000060  -0.002348
    38  H   -0.000001  -0.000012  -0.000093   0.000022   0.000014  -0.005033
              19         20         21         22         23         24
     1  C   -0.002212  -0.000802  -0.180804  -0.004742   0.001248  -0.015904
     2  C    0.001323   0.000958   0.150625   0.001933  -0.005165  -0.047543
     3  C    0.001524   0.001509   0.068237  -0.000234  -0.000823  -0.055181
     4  C   -0.059170  -0.005284  -0.151412   0.000050   0.000251   0.081213
     5  C    0.028386   0.006630   0.193390   0.000667  -0.004190  -0.058455
     6  H    0.000002   0.000000   0.000117  -0.000000   0.000000  -0.000182
     7  H    0.000107  -0.000095  -0.008468   0.000040  -0.000246   0.012030
     8  H    0.000188   0.000002  -0.000126  -0.000000   0.000000   0.000599
     9  H    0.001959  -0.000333   0.001405   0.000029  -0.000020   0.000145
    10  C    0.000780  -0.000078   0.054879  -0.000022   0.000073  -0.068830
    11  H   -0.000000   0.000000   0.000043   0.000000  -0.000000  -0.000121
    12  H    0.000002   0.000000  -0.000066   0.000000  -0.000001   0.000316
    13  H   -0.000001  -0.000000  -0.000463   0.000000   0.000000   0.000474
    14  N    0.009034  -0.000902   0.039827  -0.001638   0.006677  -0.026766
    15  C   -0.001414  -0.016592  -0.192224   0.030834  -0.018790   0.019497
    16  H    0.000175  -0.010791   0.042493  -0.000185  -0.000654  -0.013299
    17  H    0.003244   0.002501  -0.042456   0.000360   0.000988   0.028800
    18  C    0.393958   0.411866  -0.724570  -0.057081   0.004447   0.513770
    19  H    0.500418  -0.032772   0.027040  -0.004331   0.004939  -0.055318
    20  H   -0.032772   0.532284  -0.063384  -0.004447  -0.004709   0.029972
    21  C    0.027040  -0.063384   8.302846   0.404833   0.446492  -2.092409
    22  H   -0.004331  -0.004447   0.404833   0.504502  -0.032746  -0.009784
    23  H    0.004939  -0.004709   0.446492  -0.032746   0.516755  -0.073823
    24  C   -0.055318   0.029972  -2.092409  -0.009784  -0.073823   6.971197
    25  O    0.003232  -0.001381  -0.021803  -0.014453   0.004161   0.333102
    26  O    0.000247  -0.002438   0.072839   0.009293  -0.012339   0.197315
    27  O   -0.000038  -0.000010  -0.022533  -0.000121   0.000107   0.024681
    28  H    0.000047   0.000013   0.019409   0.000263  -0.000096  -0.014537
    29  H   -0.000001   0.000000  -0.005363   0.000001   0.000003   0.001732
    30  O    0.000194   0.000001  -0.001037  -0.000000   0.000000  -0.000051
    31  H   -0.000010   0.000000   0.000137  -0.000000  -0.000000   0.000230
    32  H   -0.000000  -0.000000  -0.000010   0.000000  -0.000000   0.000147
    33  O   -0.000000  -0.000000   0.003736  -0.000003  -0.000002   0.001855
    34  H    0.000000   0.000000   0.000906  -0.000000  -0.000000  -0.000948
    35  H    0.000001  -0.000000   0.003596  -0.000000  -0.000001   0.000764
    36  O   -0.015330   0.000005  -0.018861   0.000129  -0.000122  -0.001102
    37  H    0.003604   0.000068   0.006233   0.000031  -0.000009   0.003705
    38  H    0.001236   0.000008   0.006110  -0.000001  -0.000003  -0.003335
              25         26         27         28         29         30
     1  C    0.010138  -0.219211  -0.004149   0.003184   0.000519  -0.005563
     2  C   -0.008535   0.144990   0.001963  -0.001434  -0.000235  -0.002105
     3  C    0.002039  -0.022668  -0.002009   0.001436   0.000066  -0.073966
     4  C   -0.006717   0.005531   0.001496  -0.001045  -0.000027   0.092536
     5  C    0.002813  -0.001096  -0.001119   0.000758   0.000003   0.011813
     6  H    0.000001   0.000040   0.000000  -0.000000  -0.000000   0.000049
     7  H   -0.000856  -0.017537   0.000045  -0.000032  -0.000001   0.000002
     8  H   -0.000005  -0.000113  -0.000000   0.000000   0.000000  -0.013825
     9  H   -0.000001  -0.000212   0.000000  -0.000000  -0.000000  -0.000074
    10  C    0.003408   0.007834   0.000212  -0.000180  -0.000037   0.000007
    11  H    0.000000   0.000100  -0.000001   0.000001   0.000000   0.000021
    12  H    0.000056   0.000275   0.000000   0.000001  -0.000000   0.000002
    13  H   -0.000002  -0.000183   0.000000  -0.000000   0.000000  -0.000002
    14  N   -0.000103   0.037995   0.000289  -0.000399  -0.000037  -0.003612
    15  C    0.012942  -0.032078  -0.003361   0.002865  -0.000061   0.000633
    16  H    0.000027   0.004160   0.000001  -0.000001  -0.000000  -0.000005
    17  H   -0.000761  -0.007313   0.000006  -0.000005  -0.000000  -0.000001
    18  C   -0.031525  -0.030196   0.007046  -0.004838   0.001030   0.001072
    19  H    0.003232   0.000247  -0.000038   0.000047  -0.000001   0.000194
    20  H   -0.001381  -0.002438  -0.000010   0.000013   0.000000   0.000001
    21  C   -0.021803   0.072839  -0.022533   0.019409  -0.005363  -0.001037
    22  H   -0.014453   0.009293  -0.000121   0.000263   0.000001  -0.000000
    23  H    0.004161  -0.012339   0.000107  -0.000096   0.000003   0.000000
    24  C    0.333102   0.197315   0.024681  -0.014537   0.001732  -0.000051
    25  O    8.338984  -0.055464  -0.040007   0.061853   0.006377   0.000124
    26  O   -0.055464   8.498986  -0.001109   0.005319   0.000255   0.000096
    27  O   -0.040007  -0.001109   8.261997   0.245968   0.277583  -0.000000
    28  H    0.061853   0.005319   0.245968   0.288711  -0.018218   0.000001
    29  H    0.006377   0.000255   0.277583  -0.018218   0.459951   0.000000
    30  O    0.000124   0.000096  -0.000000   0.000001   0.000000   8.000858
    31  H   -0.000037  -0.000025  -0.000000  -0.000000  -0.000000   0.315302
    32  H   -0.000010   0.000000  -0.000000  -0.000000   0.000000   0.309335
    33  O   -0.001333  -0.000609  -0.010938  -0.002576   0.002747  -0.000003
    34  H    0.000181   0.000065   0.003862  -0.000172   0.000724   0.000000
    35  H   -0.001261  -0.000698  -0.046887   0.010609   0.004288  -0.000000
    36  O   -0.000995  -0.003535  -0.000056   0.000058  -0.000001   0.072288
    37  H    0.002084   0.000480   0.000030  -0.000018  -0.000001  -0.010545
    38  H   -0.000066   0.000207  -0.000001  -0.000001  -0.000000  -0.068768
              31         32         33         34         35         36
     1  C    0.000419  -0.001111  -0.004126   0.000411  -0.000307   0.024525
     2  C    0.001197  -0.001409   0.000707  -0.000600   0.000186   0.012549
     3  C    0.038553   0.008168   0.001545   0.000049   0.000500  -0.200349
     4  C   -0.028558  -0.011227   0.000098  -0.000002  -0.000164   0.377987
     5  C   -0.009650   0.006156  -0.000135  -0.000025   0.000144  -0.248519
     6  H   -0.000137   0.000024   0.000001   0.000000  -0.000000   0.000096
     7  H   -0.000003  -0.000000   0.000009  -0.000003  -0.000003   0.000044
     8  H    0.001160   0.001331  -0.000000  -0.000000   0.000000  -0.011772
     9  H   -0.000066  -0.000028   0.000000  -0.000000  -0.000000  -0.027078
    10  C   -0.000339  -0.000130   0.001809   0.000618  -0.000152  -0.001296
    11  H   -0.000018  -0.000000  -0.000022  -0.000006   0.000001  -0.000006
    12  H    0.000000   0.000000  -0.000097  -0.000050  -0.000002  -0.000032
    13  H    0.000001   0.000000  -0.000002   0.000000  -0.000000   0.000013
    14  N    0.001626   0.000284   0.000107   0.000003   0.000006   0.003683
    15  C    0.000370   0.000111  -0.000164  -0.000057   0.000103   0.004154
    16  H   -0.000001  -0.000000   0.000000   0.000000   0.000000  -0.000327
    17  H   -0.000000   0.000000   0.000000   0.000000  -0.000000  -0.000519
    18  C   -0.000213  -0.000116   0.000188   0.000008  -0.000346   0.024733
    19  H   -0.000010  -0.000000  -0.000000   0.000000   0.000001  -0.015330
    20  H    0.000000  -0.000000  -0.000000   0.000000  -0.000000   0.000005
    21  C    0.000137  -0.000010   0.003736   0.000906   0.003596  -0.018861
    22  H   -0.000000   0.000000  -0.000003  -0.000000  -0.000000   0.000129
    23  H   -0.000000  -0.000000  -0.000002  -0.000000  -0.000001  -0.000122
    24  C    0.000230   0.000147   0.001855  -0.000948   0.000764  -0.001102
    25  O   -0.000037  -0.000010  -0.001333   0.000181  -0.001261  -0.000995
    26  O   -0.000025   0.000000  -0.000609   0.000065  -0.000698  -0.003535
    27  O   -0.000000  -0.000000  -0.010938   0.003862  -0.046887  -0.000056
    28  H   -0.000000  -0.000000  -0.002576  -0.000172   0.010609   0.000058
    29  H   -0.000000   0.000000   0.002747   0.000724   0.004288  -0.000001
    30  O    0.315302   0.309335  -0.000003   0.000000  -0.000000   0.072288
    31  H    0.394208  -0.019140   0.000004   0.000000   0.000000  -0.011031
    32  H   -0.019140   0.382488   0.000000   0.000000   0.000000  -0.007702
    33  O    0.000004   0.000000   8.092019   0.290556   0.289322  -0.000006
    34  H    0.000000   0.000000   0.290556   0.469257  -0.017456  -0.000000
    35  H    0.000000   0.000000   0.289322  -0.017456   0.339573   0.000006
    36  O   -0.011031  -0.007702  -0.000006  -0.000000   0.000006   8.024464
    37  H    0.000003   0.000141   0.000006  -0.000000  -0.000004   0.332226
    38  H   -0.000759   0.001758   0.000001  -0.000000   0.000000   0.272278
              37         38
     1  C   -0.009234   0.001832
     2  C    0.002290   0.008660
     3  C    0.010909   0.054116
     4  C   -0.030340  -0.025148
     5  C    0.037219  -0.027527
     6  H   -0.000008  -0.000020
     7  H    0.000007   0.000006
     8  H    0.000733   0.003231
     9  H    0.001483   0.001786
    10  C    0.000360   0.001244
    11  H    0.000002   0.000002
    12  H    0.000007   0.000001
    13  H   -0.000001  -0.000001
    14  N   -0.002961  -0.000012
    15  C   -0.005788  -0.000093
    16  H    0.000040   0.000022
    17  H    0.000060   0.000014
    18  C   -0.002348  -0.005033
    19  H    0.003604   0.001236
    20  H    0.000068   0.000008
    21  C    0.006233   0.006110
    22  H    0.000031  -0.000001
    23  H   -0.000009  -0.000003
    24  C    0.003705  -0.003335
    25  O    0.002084  -0.000066
    26  O    0.000480   0.000207
    27  O    0.000030  -0.000001
    28  H   -0.000018  -0.000001
    29  H   -0.000001  -0.000000
    30  O   -0.010545  -0.068768
    31  H    0.000003  -0.000759
    32  H    0.000141   0.001758
    33  O    0.000006   0.000001
    34  H   -0.000000  -0.000000
    35  H   -0.000004   0.000000
    36  O    0.332226   0.272278
    37  H    0.377346  -0.022140
    38  H   -0.022140   0.418433
 Mulliken charges:
               1
     1  C   -0.469622
     2  C    0.866294
     3  C   -0.529442
     4  C   -0.089931
     5  C   -0.263429
     6  H    0.161410
     7  H    0.209202
     8  H    0.207339
     9  H    0.205725
    10  C   -0.847289
    11  H    0.166166
    12  H    0.207465
    13  H    0.192651
    14  N    0.613471
    15  C   -0.463829
    16  H    0.183098
    17  H    0.192728
    18  C   -0.148628
    19  H    0.188961
    20  H    0.158201
    21  C   -0.319204
    22  H    0.176821
    23  H    0.167593
    24  C    0.316045
    25  O   -0.596210
    26  O   -0.579203
    27  O   -0.692949
    28  H    0.403057
    29  H    0.268702
    30  O   -0.624776
    31  H    0.316775
    32  H    0.330942
    33  O   -0.664694
    34  H    0.252679
    35  H    0.418185
    36  O   -0.600598
    37  H    0.304332
    38  H    0.381963
 Sum of Mulliken charges =  -0.00000
 Mulliken charges with hydrogens summed into heavy atoms:
               1
     1  C   -0.260420
     2  C    0.866294
     3  C   -0.368032
     4  C    0.117409
     5  C   -0.057704
    10  C   -0.281008
    14  N    0.613471
    15  C   -0.088004
    18  C    0.198534
    21  C    0.025209
    24  C    0.316045
    25  O   -0.596210
    26  O   -0.579203
    27  O   -0.021190
    30  O    0.022941
    33  O    0.006169
    36  O    0.085697
         Mulliken charges condensed to fragments:
      1     -0.093618
      2     -0.021190
      3      0.022941
      4      0.006169
      5      0.085697
 Electronic spatial extent (au):  <R**2>=         189617.8480
 Charge=             -0.0000 electrons
 Dipole moment (field-independent basis, Debye):
    X=              8.0324    Y=              8.0553    Z=              6.2637  Tot=             12.9862
 Quadrupole moment (field-independent basis, Debye-Ang):
   XX=            142.0977   YY=             -6.1728   ZZ=             22.9330
   XY=            154.7972   XZ=            168.2828   YZ=            116.7985
 Traceless Quadrupole moment (field-independent basis, Debye-Ang):
   XX=             89.1451   YY=            -59.1254   ZZ=            -30.0196
   XY=            154.7972   XZ=            168.2828   YZ=            116.7985
 Octapole moment (field-independent basis, Debye-Ang**2):
  XXX=            813.5418  YYY=          -1188.0591  ZZZ=           -960.6887  XYY=            -49.9857
  XXY=           2239.3617  XXZ=           2682.9868  XZZ=            953.1083  YZZ=            831.6412
  YYZ=            256.8306  XYZ=           2043.5002
 Hexadecapole moment (field-independent basis, Debye-Ang**3):
 XXXX=         -37278.5667 YYYY=         -23086.5220 ZZZZ=         -29779.5788 XXXY=          21708.3470
 XXXZ=          26741.2718 YYYX=         -19830.3655 YYYZ=          -8858.8403 ZZZX=         -10322.9460
 ZZZY=           -793.0801 XXYY=          -4529.1120 XXZZ=          13433.9966 YYZZ=             28.5404
 XXYZ=          29231.0639 YYXZ=           3874.8168 ZZXY=          14270.9642
 N-N= 1.314251268942D+03 E-N=-4.736337420316D+03  KE= 8.962157620439D+02
 No NMR shielding tensors so no spin-rotation constants.
 Leave Link  601 at Mon Feb 20 10:13:07 2023, MaxMem=  6710886400 cpu:               4.1 elap:               0.2
 (Enter /data0/home/software/g16/l122.exe)
 CPIOFr:  IOpCl= 0 IRwI=-1 IRwCP=  731 ICalc= -1 LCPTot=      527053 Len1MO=     1381245 IndFrg=      527053
 CPIOFr:  IOpCl= 0 IRwI=-1 IRwCP=  731 ICalc=  0 LCPTot=      527053 Len1MO=     1381245 IndFrg=     1908298
 Counterpoise: doing calculation for fragment   1 using the basis set of the full-system, NewBq=T
 Leave Link  122 at Mon Feb 20 10:13:08 2023, MaxMem=  6710886400 cpu:               0.6 elap:               0.0
 (Enter /data0/home/software/g16/l301.exe)
 Basis read from rwf:  (5D, 7F)
 No pseudopotential information found on rwf file.
   585 basis functions,   882 primitive gaussians,   619 cartesian basis functions
    48 alpha electrons       48 beta electrons
       nuclear repulsion energy       800.7483749331 Hartrees.
 IExCor= 4336 DFT=T Ex+Corr=M062X ExCW=0 ScaHFX=  0.540000
 ScaDFX=  1.000000  1.000000  1.000000  1.000000 ScalE2=  1.000000  1.000000
 IRadAn=      5 IRanWt=     -1 IRanGd=            0 ICorTp=0 IEmpDi=131
 NAtoms=   38 NActive=   38 NUniq=   38 SFac= 1.00D+00 NAtFMM=   60 NAOKFM=F Big=F
 Integral buffers will be    131072 words long.
 Raffenetti 2 integral format.
 Two-electron integral symmetry is turned off.
 R6Disp:  Grimme-D3 Dispersion energy=       -0.0012078991 Hartrees.
 Nuclear repulsion after empirical dispersion term =      800.7471670340 Hartrees.
 No density basis found on file   718.
 Leave Link  301 at Mon Feb 20 10:13:08 2023, MaxMem=  6710886400 cpu:               1.3 elap:               0.1
 (Enter /data0/home/software/g16/l302.exe)
 NPDir=0 NMtPBC=     1 NCelOv=     1 NCel=       1 NClECP=     1 NCelD=      1
         NCelK=      1 NCelE2=     1 NClLst=     1 CellRange=     0.0.
 One-electron integrals computed using PRISM.
 NBasis=   585 RedAO= T EigKep=  2.18D-06  NBF=   585
 NBsUse=   585 1.00D-06 EigRej= -1.00D+00 NBFU=   585
 Precomputing XC quadrature grid using
 IXCGrd= 4 IRadAn=           5 IRanWt=          -1 IRanGd=           0 AccXCQ= 0.00D+00.
 Generated NRdTot=       0 NPtTot=           0 NUsed=           0 NTot=          32
 NSgBfM=   605   605   605   605   605 MxSgAt=    38 MxSgA2=    38.
 Leave Link  302 at Mon Feb 20 10:13:08 2023, MaxMem=  6710886400 cpu:              16.1 elap:               0.7
 (Enter /data0/home/software/g16/l303.exe)
 DipDrv:  MaxL=1.
 Leave Link  303 at Mon Feb 20 10:13:08 2023, MaxMem=  6710886400 cpu:               1.4 elap:               0.1
 (Enter /data0/home/software/g16/l401.exe)
 ExpMin= 4.38D-02 ExpMax= 8.59D+03 ExpMxC= 1.30D+03 IAcc=3 IRadAn=         5 AccDes= 0.00D+00
 Harris functional with IExCor= 1009 and IRadAn=       5 diagonalized for initial guess.
 HarFok:  IExCor= 1009 AccDes= 0.00D+00 IRadAn=         5 IDoV= 1 UseB2=F ITyADJ=14
 ICtDFT=  3500011 ScaDFX=  1.000000  1.000000  1.000000  1.000000
 FoFCou: FMM=F IPFlag=           0 FMFlag=      100000 FMFlg1=           0
         NFxFlg=           0 DoJE=T BraDBF=F KetDBF=T FulRan=T
         wScrn=  0.000000 ICntrl=       500 IOpCl=  0 I1Cent=   200000004 NGrid=           0
         NMat0=    1 NMatS0=      1 NMatT0=    0 NMatD0=    1 NMtDS0=    0 NMtDT0=    0
 Symmetry not used in FoFCou.
 Harris En= -593.767076071428    
 JPrj=0 DoOrth=F DoCkMO=F.
 Leave Link  401 at Mon Feb 20 10:13:11 2023, MaxMem=  6710886400 cpu:              61.3 elap:               2.6
 (Enter /data0/home/software/g16/l502.exe)
 Two-electron integral symmetry not used.
 Closed shell SCF:
 Using DIIS extrapolation, IDIIS=  1040.
 NGot=  6710886400 LenX=  6710100777 LenY=  6709716997
 Requested convergence on RMS density matrix=1.00D-08 within 128 cycles.
 Requested convergence on MAX density matrix=1.00D-06.
 Requested convergence on             energy=1.00D-06.
 No special actions if energy rises.
 Fock matrices will be formed incrementally for  20 cycles.

 Cycle   1  Pass 1  IDiag  1:
 FoFJK:  IHMeth= 1 ICntrl=       0 DoSepK=F KAlg= 0 I1Cent=           0 FoldK=F
 IRaf= 810000000 NMat=       1 IRICut=       1 DoRegI=T DoRafI=F ISym2E= 0 IDoP0=0 IntGTp=1.
 FoFCou: FMM=F IPFlag=           0 FMFlag=      100000 FMFlg1=           0
         NFxFlg=           0 DoJE=F BraDBF=F KetDBF=F FulRan=T
         wScrn=  0.000000 ICntrl=         0 IOpCl=  0 I1Cent=           0 NGrid=           0
         NMat0=    1 NMatS0=      1 NMatT0=    0 NMatD0=    1 NMtDS0=    0 NMtDT0=    0
 Symmetry not used in FoFCou.
 E= -593.573266351428    
 DIIS: error= 1.96D-02 at cycle   1 NSaved=   1.
 NSaved= 1 IEnMin= 1 EnMin= -593.573266351428     IErMin= 1 ErrMin= 1.96D-02
 ErrMax= 1.96D-02  0.00D+00 EMaxC= 1.00D-01 BMatC= 5.29D-01 BMatP= 5.29D-01
 IDIUse=3 WtCom= 8.04D-01 WtEn= 1.96D-01
 Coeff-Com:  0.100D+01
 Coeff-En:   0.100D+01
 Coeff:      0.100D+01
 Gap=     0.236 Goal=   None    Shift=    0.000
 GapD=    0.236 DampG=1.000 DampE=0.500 DampFc=0.5000 IDamp=-1.
 Damping current iteration by 5.00D-01
 RMSDP=8.78D-02 MaxDP=1.42D+01              OVMax= 9.69D-01

 Cycle   2  Pass 1  IDiag  1:
 RMSU=  4.20D-02    CP:  2.19D+00
 E= -593.391612570614     Delta-E=        0.181653780814 Rises=F Damp=T
 DIIS: error= 1.20D-02 at cycle   2 NSaved=   2.
 NSaved= 2 IEnMin= 1 EnMin= -593.573266351428     IErMin= 2 ErrMin= 1.20D-02
 ErrMax= 1.20D-02  0.00D+00 EMaxC= 1.00D-01 BMatC= 1.68D-01 BMatP= 5.29D-01
 IDIUse=3 WtCom= 8.80D-01 WtEn= 1.20D-01
 Coeff-Com:  0.267D+00 0.733D+00
 Coeff-En:   0.657D+00 0.343D+00
 Coeff:      0.313D+00 0.687D+00
 Gap=    -0.326 Goal=   None    Shift=    0.000
 RMSDP=4.48D-02 MaxDP=7.36D+00 DE= 1.82D-01 OVMax= 5.43D-01

 Cycle   3  Pass 1  IDiag  1:
 RMSU=  3.88D-03    CP:  8.06D-01 -1.36D-03
 E= -593.766172824883     Delta-E=       -0.374560254269 Rises=F Damp=F
 DIIS: error= 1.31D-02 at cycle   3 NSaved=   3.
 NSaved= 3 IEnMin= 3 EnMin= -593.766172824883     IErMin= 2 ErrMin= 1.20D-02
 ErrMax= 1.31D-02  0.00D+00 EMaxC= 1.00D-01 BMatC= 2.30D-01 BMatP= 1.68D-01
[...]
    10  C    0.000000
    14  N    0.000000
    15  C    0.000000
    18  C    0.000000
    21  C    0.000000
    24  C    0.000000
    25  O    0.000000
    26  O    0.000000
    27  O    0.000000
    30  O    0.000000
    33  O    0.000000
    36  O    0.000000
         Mulliken charges condensed to fragments:
      1      0.000000
      2      0.000000
      3      0.000000
      4      0.000000
      5      0.000000
 Electronic spatial extent (au):  <R**2>=           8725.0531
 Charge=             -0.0000 electrons
 Dipole moment (field-independent basis, Debye):
    X=              1.8599    Y=             -0.5700    Z=             -0.8746  Tot=              2.1329
 Quadrupole moment (field-independent basis, Debye-Ang):
   XX=             37.3577   YY=            -11.4055   ZZ=            -21.7328
   XY=             -0.7587   XZ=              8.2090   YZ=             -9.3093
 Traceless Quadrupole moment (field-independent basis, Debye-Ang):
   XX=             35.9512   YY=            -12.8119   ZZ=            -23.1393
   XY=             -0.7587   XZ=              8.2090   YZ=             -9.3093
 Octapole moment (field-independent basis, Debye-Ang**2):
  XXX=            548.0856  YYY=            -99.9042  ZZZ=           -386.8568  XYY=           -114.7492
  XXY=             38.0918  XXZ=            252.3948  XZZ=            -70.8495  YZZ=           -143.9022
  YYZ=           -126.3688  XYZ=            -50.4385
 Hexadecapole moment (field-independent basis, Debye-Ang**3):
 XXXX=           6875.2834 YYYY=           -665.5211 ZZZZ=          -5940.3189 XXXY=            737.7552
 XXXZ=           4093.6474 YYYX=          -1109.9872 YYYZ=          -1032.8350 ZZZX=          -2696.9757
 ZZZY=          -2084.8545 XXYY=          -1205.9907 XXZZ=            741.9978 YYZZ=          -1441.0809
 XXYZ=           -119.9481 YYXZ=          -1293.9358 ZZXY=          -1103.0133
 N-N= 9.067910499468D+00 E-N=-1.989804590591D+02  KE= 7.618297056907D+01
 No NMR shielding tensors so no spin-rotation constants.
 Leave Link  601 at Mon Feb 20 10:22:40 2023, MaxMem=  6710886400 cpu:               1.7 elap:               0.1
 (Enter /data0/home/software/g16/l122.exe)
 CPIOFr:  IOpCl= 0 IRwI=-1 IRwCP=  731 ICalc=  9 LCPTot=      527053 Len1MO=     1381245 IndFrg=    14339503
 Counterpoise: doing calculation for fragment   5 using the basis set of the fragment.
 Leave Link  122 at Mon Feb 20 10:22:40 2023, MaxMem=  6710886400 cpu:               0.3 elap:               0.0
 (Enter /data0/home/software/g16/l301.exe)
 Basis read from rwf:  (5D, 7F)
 No pseudopotential information found on rwf file.
    39 basis functions,    58 primitive gaussians,    41 cartesian basis functions
     5 alpha electrons        5 beta electrons
       nuclear repulsion energy         9.1030688941 Hartrees.
 IExCor= 4336 DFT=T Ex+Corr=M062X ExCW=0 ScaHFX=  0.540000
 ScaDFX=  1.000000  1.000000  1.000000  1.000000 ScalE2=  1.000000  1.000000
 IRadAn=      5 IRanWt=     -1 IRanGd=            0 ICorTp=0 IEmpDi=131
 NAtoms=   38 NActive=    3 NUniq=    3 SFac= 1.00D+00 NAtFMM=   60 NAOKFM=F Big=F
 Integral buffers will be    131072 words long.
 Raffenetti 2 integral format.
 Two-electron integral symmetry is turned off.
 R6Disp:  Grimme-D3 Dispersion energy=       -0.0000000070 Hartrees.
 Nuclear repulsion after empirical dispersion term =        9.1030688871 Hartrees.
 No density basis found on file   718.
 Leave Link  301 at Mon Feb 20 10:22:40 2023, MaxMem=  6710886400 cpu:               1.3 elap:               0.1
 (Enter /data0/home/software/g16/l302.exe)
 NPDir=0 NMtPBC=     1 NCelOv=     1 NCel=       1 NClECP=     1 NCelD=      1
         NCelK=      1 NCelE2=     1 NClLst=     1 CellRange=     0.0.
 One-electron integrals computed using PRISM.
 NBasis=    39 RedAO= T EigKep=  2.95D-03  NBF=    39
 NBsUse=    39 1.00D-06 EigRej= -1.00D+00 NBFU=    39
 Precomputing XC quadrature grid using
 IXCGrd= 4 IRadAn=           5 IRanWt=          -1 IRanGd=           0 AccXCQ= 0.00D+00.
 Generated NRdTot=       0 NPtTot=           0 NUsed=           0 NTot=          32
 NSgBfM=    41    41    41    41    41 MxSgAt=     3 MxSgA2=     3.
 Leave Link  302 at Mon Feb 20 10:22:40 2023, MaxMem=  6710886400 cpu:               2.3 elap:               0.1
 (Enter /data0/home/software/g16/l303.exe)
 DipDrv:  MaxL=1.
 Leave Link  303 at Mon Feb 20 10:22:40 2023, MaxMem=  6710886400 cpu:               0.4 elap:               0.0
 (Enter /data0/home/software/g16/l401.exe)
 ExpMin= 8.45D-02 ExpMax= 8.59D+03 ExpMxC= 1.30D+03 IAcc=3 IRadAn=         5 AccDes= 0.00D+00
 Harris functional with IExCor= 1009 and IRadAn=       5 diagonalized for initial guess.
 HarFok:  IExCor= 1009 AccDes= 0.00D+00 IRadAn=         5 IDoV= 1 UseB2=F ITyADJ=14
 ICtDFT=  3500011 ScaDFX=  1.000000  1.000000  1.000000  1.000000
 FoFCou: FMM=F IPFlag=           0 FMFlag=      100000 FMFlg1=           0
         NFxFlg=           0 DoJE=T BraDBF=F KetDBF=T FulRan=T
         wScrn=  0.000000 ICntrl=       500 IOpCl=  0 I1Cent=   200000004 NGrid=           0
         NMat0=    1 NMatS0=      1 NMatT0=    0 NMatD0=    1 NMtDS0=    0 NMtDT0=    0
 Symmetry not used in FoFCou.
 Harris En= -76.4162434558068    
 JPrj=0 DoOrth=F DoCkMO=F.
 Leave Link  401 at Mon Feb 20 10:22:40 2023, MaxMem=  6710886400 cpu:               2.9 elap:               0.1
 (Enter /data0/home/software/g16/l502.exe)
 Keep R1 ints in memory in canonical form, NReq=21044467.
 FoFCou: FMM=F IPFlag=           0 FMFlag=           0 FMFlg1=           0
         NFxFlg=           0 DoJE=F BraDBF=F KetDBF=F FulRan=T
         wScrn=  0.000000 ICntrl=       600 IOpCl=  0 I1Cent=           0 NGrid=           0
         NMat0=    1 NMatS0=    780 NMatT0=    0 NMatD0=    1 NMtDS0=    0 NMtDT0=    0
 Symmetry not used in FoFCou.
 Two-electron integral symmetry not used.
 Closed shell SCF:
 Using DIIS extrapolation, IDIIS=  1040.
 NGot=  6710886400 LenX=  6710575909 LenY=  6710573787
 Requested convergence on RMS density matrix=1.00D-08 within 128 cycles.
 Requested convergence on MAX density matrix=1.00D-06.
 Requested convergence on             energy=1.00D-06.
 No special actions if energy rises.
 Integral accuracy reduced to 1.0D-05 until final iterations.

 Cycle   1  Pass 0  IDiag  1:
 E= -76.3466220062027    
 DIIS: error= 6.98D-02 at cycle   1 NSaved=   1.
 NSaved= 1 IEnMin= 1 EnMin= -76.3466220062027     IErMin= 1 ErrMin= 6.98D-02
 ErrMax= 6.98D-02  0.00D+00 EMaxC= 1.00D-01 BMatC= 1.20D-01 BMatP= 1.20D-01
 IDIUse=3 WtCom= 3.02D-01 WtEn= 6.98D-01
 Coeff-Com:  0.100D+01
 Coeff-En:   0.100D+01
 Coeff:      0.100D+01
 Gap=     0.325 Goal=   None    Shift=    0.000
 GapD=    0.325 DampG=1.000 DampE=0.500 DampFc=0.5000 IDamp=-1.
 Damping current iteration by 5.00D-01
 RMSDP=8.02D-03 MaxDP=1.01D-01              OVMax= 1.67D-01

 Cycle   2  Pass 0  IDiag  1:
 E= -76.3778970667871     Delta-E=       -0.031275060584 Rises=F Damp=T
 DIIS: error= 1.13D-02 at cycle   2 NSaved=   2.
 NSaved= 2 IEnMin= 2 EnMin= -76.3778970667871     IErMin= 2 ErrMin= 1.13D-02
 ErrMax= 1.13D-02  0.00D+00 EMaxC= 1.00D-01 BMatC= 4.83D-03 BMatP= 1.20D-01
 IDIUse=3 WtCom= 8.87D-01 WtEn= 1.13D-01
 Coeff-Com:  0.829D-01 0.917D+00
 Coeff-En:   0.188D+00 0.812D+00
 Coeff:      0.948D-01 0.905D+00
 Gap=     0.457 Goal=   None    Shift=    0.000
 RMSDP=9.51D-04 MaxDP=1.41D-02 DE=-3.13D-02 OVMax= 1.00D-01

 Cycle   3  Pass 0  IDiag  1:
 E= -76.4216545270465     Delta-E=       -0.043757460259 Rises=F Damp=F
 DIIS: error= 2.14D-03 at cycle   3 NSaved=   3.
 NSaved= 3 IEnMin= 3 EnMin= -76.4216545270465     IErMin= 3 ErrMin= 2.14D-03
 ErrMax= 2.14D-03  0.00D+00 EMaxC= 1.00D-01 BMatC= 8.92D-05 BMatP= 4.83D-03
 IDIUse=3 WtCom= 9.79D-01 WtEn= 2.14D-02
 Coeff-Com: -0.199D-01 0.385D-01 0.981D+00
 Coeff-En:   0.000D+00 0.000D+00 0.100D+01
 Coeff:     -0.195D-01 0.377D-01 0.982D+00
 Gap=     0.462 Goal=   None    Shift=    0.000
 RMSDP=1.14D-04 MaxDP=9.41D-04 DE=-4.38D-02 OVMax= 3.31D-03

 Cycle   4  Pass 0  IDiag  1:
 E= -76.4217308919699     Delta-E=       -0.000076364923 Rises=F Damp=F
 DIIS: error= 4.11D-04 at cycle   4 NSaved=   4.
 NSaved= 4 IEnMin= 4 EnMin= -76.4217308919699     IErMin= 4 ErrMin= 4.11D-04
 ErrMax= 4.11D-04  0.00D+00 EMaxC= 1.00D-01 BMatC= 3.20D-06 BMatP= 8.92D-05
 IDIUse=3 WtCom= 9.96D-01 WtEn= 4.11D-03
 Coeff-Com: -0.181D-02-0.237D-02 0.159D+00 0.845D+00
 Coeff-En:   0.000D+00 0.000D+00 0.000D+00 0.100D+01
 Coeff:     -0.180D-02-0.236D-02 0.158D+00 0.846D+00
 Gap=     0.462 Goal=   None    Shift=    0.000
 RMSDP=2.21D-05 MaxDP=3.55D-04 DE=-7.64D-05 OVMax= 5.37D-04

 Cycle   5  Pass 0  IDiag  1:
 E= -76.4217328818789     Delta-E=       -0.000001989909 Rises=F Damp=F
 DIIS: error= 8.73D-05 at cycle   5 NSaved=   5.
 NSaved= 5 IEnMin= 5 EnMin= -76.4217328818789     IErMin= 5 ErrMin= 8.73D-05
 ErrMax= 8.73D-05  0.00D+00 EMaxC= 1.00D-01 BMatC= 8.06D-08 BMatP= 3.20D-06
 IDIUse=1 WtCom= 1.00D+00 WtEn= 0.00D+00
 Coeff-Com:  0.117D-02-0.179D-02-0.368D-01-0.590D-01 0.110D+01
 Coeff:      0.117D-02-0.179D-02-0.368D-01-0.590D-01 0.110D+01
 Gap=     0.463 Goal=   None    Shift=    0.000
 RMSDP=8.92D-06 MaxDP=1.00D-04 DE=-1.99D-06 OVMax= 2.01D-04

 Initial convergence to 1.0D-05 achieved.  Increase integral accuracy.
 Cycle   6  Pass 1  IDiag  1:
 E= -76.4217261186257     Delta-E=        0.000006763253 Rises=F Damp=F
 DIIS: error= 2.17D-05 at cycle   1 NSaved=   1.
 NSaved= 1 IEnMin= 1 EnMin= -76.4217261186257     IErMin= 1 ErrMin= 2.17D-05
 ErrMax= 2.17D-05  0.00D+00 EMaxC= 1.00D-01 BMatC= 2.00D-08 BMatP= 2.00D-08
 IDIUse=1 WtCom= 1.00D+00 WtEn= 0.00D+00
 Coeff-Com:  0.100D+01
 Coeff:      0.100D+01
 Gap=     0.463 Goal=   None    Shift=    0.000
 RMSDP=8.92D-06 MaxDP=1.00D-04 DE= 6.76D-06 OVMax= 4.18D-05

 Cycle   7  Pass 1  IDiag  1:
 E= -76.4217261339523     Delta-E=       -0.000000015327 Rises=F Damp=F
 DIIS: error= 6.38D-06 at cycle   2 NSaved=   2.
 NSaved= 2 IEnMin= 2 EnMin= -76.4217261339523     IErMin= 2 ErrMin= 6.38D-06
 ErrMax= 6.38D-06  0.00D+00 EMaxC= 1.00D-01 BMatC= 7.36D-10 BMatP= 2.00D-08
 IDIUse=1 WtCom= 1.00D+00 WtEn= 0.00D+00
 Coeff-Com: -0.226D-01 0.102D+01
 Coeff:     -0.226D-01 0.102D+01
 Gap=     0.463 Goal=   None    Shift=    0.000
 RMSDP=7.47D-07 MaxDP=8.54D-06 DE=-1.53D-08 OVMax= 1.72D-05

 Cycle   8  Pass 1  IDiag  1:
 E= -76.4217261341346     Delta-E=       -0.000000000182 Rises=F Damp=F
 DIIS: error= 5.49D-06 at cycle   3 NSaved=   3.
 NSaved= 3 IEnMin= 3 EnMin= -76.4217261341346     IErMin= 3 ErrMin= 5.49D-06
 ErrMax= 5.49D-06  0.00D+00 EMaxC= 1.00D-01 BMatC= 7.69D-10 BMatP= 7.36D-10
 IDIUse=1 WtCom= 1.00D+00 WtEn= 0.00D+00
 Coeff-Com: -0.424D-01 0.537D+00 0.505D+00
 Coeff:     -0.424D-01 0.537D+00 0.505D+00
 Gap=     0.463 Goal=   None    Shift=    0.000
 RMSDP=3.20D-07 MaxDP=4.43D-06 DE=-1.82D-10 OVMax= 7.16D-06

 Cycle   9  Pass 1  IDiag  1:
 E= -76.4217261346381     Delta-E=       -0.000000000503 Rises=F Damp=F
 DIIS: error= 6.75D-07 at cycle   4 NSaved=   4.
 NSaved= 4 IEnMin= 4 EnMin= -76.4217261346381     IErMin= 4 ErrMin= 6.75D-07
 ErrMax= 6.75D-07  0.00D+00 EMaxC= 1.00D-01 BMatC= 5.70D-12 BMatP= 7.36D-10
 IDIUse=1 WtCom= 1.00D+00 WtEn= 0.00D+00
 Coeff-Com: -0.210D-02-0.188D-01 0.373D-01 0.984D+00
 Coeff:     -0.210D-02-0.188D-01 0.373D-01 0.984D+00
 Gap=     0.463 Goal=   None    Shift=    0.000
 RMSDP=8.14D-08 MaxDP=4.94D-07 DE=-5.03D-10 OVMax= 1.56D-06

 Cycle  10  Pass 1  IDiag  1:
 E= -76.4217261346460     Delta-E=       -0.000000000008 Rises=F Damp=F
 DIIS: error= 7.41D-08 at cycle   5 NSaved=   5.
 NSaved= 5 IEnMin= 5 EnMin= -76.4217261346460     IErMin= 5 ErrMin= 7.41D-08
 ErrMax= 7.41D-08  0.00D+00 EMaxC= 1.00D-01 BMatC= 2.23D-13 BMatP= 5.70D-12
 IDIUse=1 WtCom= 1.00D+00 WtEn= 0.00D+00
 Coeff-Com:  0.230D-02-0.324D-01-0.274D-01 0.356D-01 0.102D+01
 Coeff:      0.230D-02-0.324D-01-0.274D-01 0.356D-01 0.102D+01
 Gap=     0.463 Goal=   None    Shift=    0.000
 RMSDP=3.06D-08 MaxDP=2.09D-07 DE=-7.96D-12 OVMax= 4.84D-07

 Cycle  11  Pass 1  IDiag  1:
 E= -76.4217261346466     Delta-E=       -0.000000000001 Rises=F Damp=F
 DIIS: error= 1.47D-08 at cycle   6 NSaved=   6.
 NSaved= 6 IEnMin= 6 EnMin= -76.4217261346466     IErMin= 6 ErrMin= 1.47D-08
 ErrMax= 1.47D-08  0.00D+00 EMaxC= 1.00D-01 BMatC= 6.52D-15 BMatP= 2.23D-13
 IDIUse=1 WtCom= 1.00D+00 WtEn= 0.00D+00
 Coeff-Com: -0.669D-04 0.246D-02 0.468D-03-0.411D-01-0.403D-01 0.108D+01
 Coeff:     -0.669D-04 0.246D-02 0.468D-03-0.411D-01-0.403D-01 0.108D+01
 Gap=     0.463 Goal=   None    Shift=    0.000
 RMSDP=5.15D-09 MaxDP=4.01D-08 DE=-5.68D-13 OVMax= 1.01D-07

 SCF Done:  E(RM062X) =  -76.4217261346     A.U. after   11 cycles
            NFock= 11  Conv=0.52D-08     -V/T= 2.0029
 KE= 7.619722503512D+01 PE=-1.990541001002D+02 EE= 3.733208004330D+01
 Leave Link  502 at Mon Feb 20 10:22:40 2023, MaxMem=  6710886400 cpu:               8.8 elap:               0.4
 (Enter /data0/home/software/g16/l601.exe)
 Copying SCF densities to generalized density rwf, IOpCl= 0 IROHF=0.

 **********************************************************************

            Population analysis using the SCF density.

 **********************************************************************

 Alpha  occ. eigenvalues --  -19.62697  -1.13468  -0.60347  -0.47894  -0.40030
 Alpha virt. eigenvalues --    0.06222   0.13331   0.17429   0.17936   0.18884
 Alpha virt. eigenvalues --    0.23471   0.50931   0.53529   0.98210   1.00229
 Alpha virt. eigenvalues --    1.05992   1.16836   1.20382   1.31647   1.33975
 Alpha virt. eigenvalues --    1.71156   1.74542   1.75124   2.07257   2.09995
 Alpha virt. eigenvalues --    2.35987   2.39312   2.55311   2.87712   3.01603
 Alpha virt. eigenvalues --    5.05611   5.49756   5.90418   6.78615   6.79880
 Alpha virt. eigenvalues --    6.87279   6.91947   7.09270  49.95574
          Condensed to atoms (all electrons):
              36         37         38
    36  O    7.917831   0.316513   0.315563
    37  H    0.316513   0.432457  -0.023506
    38  H    0.315563  -0.023506   0.432573
 Mulliken charges:
               1
     1  C    0.000000
     2  C    0.000000
     3  C    0.000000
     4  C    0.000000
     5  C    0.000000
     6  H    0.000000
     7  H    0.000000
     8  H    0.000000
     9  H    0.000000
    10  C    0.000000
    11  H    0.000000
    12  H    0.000000
    13  H    0.000000
    14  N    0.000000
    15  C    0.000000
    16  H    0.000000
    17  H    0.000000
    18  C    0.000000
    19  H    0.000000
    20  H    0.000000
    21  C    0.000000
    22  H    0.000000
    23  H    0.000000
    24  C    0.000000
    25  O    0.000000
    26  O    0.000000
    27  O    0.000000
    28  H    0.000000
    29  H    0.000000
    30  O    0.000000
    31  H    0.000000
    32  H    0.000000
    33  O    0.000000
    34  H    0.000000
    35  H    0.000000
    36  O   -0.549907
    37  H    0.274537
    38  H    0.275371
 Sum of Mulliken charges =   0.00000
 Mulliken charges with hydrogens summed into heavy atoms:
               1
     1  C    0.000000
     2  C    0.000000
     3  C    0.000000
     4  C    0.000000
     5  C    0.000000
    10  C    0.000000
    14  N    0.000000
    15  C    0.000000
    18  C    0.000000
    21  C    0.000000
    24  C    0.000000
    25  O    0.000000
    26  O    0.000000
    27  O    0.000000
    30  O    0.000000
    33  O    0.000000
    36  O    0.000000
         Mulliken charges condensed to fragments:
      1      0.000000
      2      0.000000
      3      0.000000
      4      0.000000
      5      0.000000
 Electronic spatial extent (au):  <R**2>=          14156.4935
 Charge=              0.0000 electrons
 Dipole moment (field-independent basis, Debye):
    X=             -1.6963    Y=             -0.5349    Z=              1.2061  Tot=              2.1490
 Quadrupole moment (field-independent basis, Debye-Ang):
   XX=            -58.0302   YY=            -15.7633   ZZ=             14.6310
   XY=            -23.6891   XZ=              3.1747   YZ=              8.2379
 Traceless Quadrupole moment (field-independent basis, Debye-Ang):
   XX=            -38.3094   YY=              3.9575   ZZ=             34.3518
   XY=            -23.6891   XZ=              3.1747   YZ=              8.2379
 Octapole moment (field-independent basis, Debye-Ang**2):
  XXX=          -1469.7272  YYY=           -306.7249  ZZZ=            110.1926  XYY=           -382.4047
  XXY=           -658.9972  XXZ=           -237.7675  XZZ=             87.1080  YZZ=            123.0721
  YYZ=             -0.1568  XYZ=            -14.4229
 Hexadecapole moment (field-independent basis, Debye-Ang**3):
 XXXX=         -32751.4953 YYYY=          -4961.7106 ZZZZ=            359.5579 XXXY=         -15502.4284
 XXXZ=          -8800.8880 YYYX=          -5973.7405 YYYZ=          -1220.3394 ZZZX=            468.6668
 ZZZY=           1010.6227 XXYY=          -8588.3902 XXZZ=          -1213.4115 YYZZ=            607.2620
 XXYZ=          -2878.9865 YYXZ=          -1290.0622 ZZXY=            619.0835
 N-N= 9.103068887105D+00 E-N=-1.990541002214D+02  KE= 7.619722503512D+01
 No NMR shielding tensors so no spin-rotation constants.
 Leave Link  601 at Mon Feb 20 10:22:41 2023, MaxMem=  6710886400 cpu:               1.8 elap:               0.1
 (Enter /data0/home/software/g16/l122.exe)
 CPIOFr:  IOpCl= 0 IRwI=-1 IRwCP=  731 ICalc= 10 LCPTot=      527053 Len1MO=     1381245 IndFrg=    15720748
 Restoring MOs from calculation   1 to rwf.
 CPIOFr:  IOpCl= 0 IRwI=-2 IRwCP=  731 ICalc=  0 LCPTot=      527053 Len1MO=     1381245 IndFrg=     1908298
 Counterpoise corrected energy =    -899.713146425526
                   BSSE energy =       0.004977161438
              sum of fragments =    -899.663021553136
           complexation energy =     -34.58 kcal/mole (raw)
           complexation energy =     -31.45 kcal/mole (corrected)
 Leave Link  122 at Mon Feb 20 10:22:41 2023, MaxMem=  6710886400 cpu:               0.5 elap:               0.0
 (Enter /data0/home/software/g16/l9999.exe)
 1\1\GINC-LOCALHOST\SP\RM062X\6-311+G(2d,p)\C10H21N1O6\WUHANYU\20-Feb-2
 023\0\\#p M062X/6-311+G(2d,p) nosymm em=GD3 counterpoise=5\\Title Card
  Required\\0,1\C,0,17.29936,6.373064,10.489098\C,0,16.677871,6.673549,
 11.706801\C,0,16.328951,8.000664,11.981306\C,0,16.645667,8.993219,11.0
 55639\C,0,17.285505,8.659954,9.86531\H,0,15.792322,8.252482,12.902449\
 H,0,17.523803,5.328829,10.207012\H,0,16.365865,10.037571,11.238366\H,0
 ,17.536307,9.420515,9.110803\C,0,16.367481,5.574951,12.654545\H,0,15.5
 40368,5.839847,13.338115\H,0,16.015146,4.665714,12.129952\H,0,17.23374
 8,5.295682,13.267047\N,0,17.599114,7.359768,9.599631\C,0,18.278816,7.0
 18757,8.326198\H,0,19.250933,7.560704,8.29803\H,0,18.511536,5.92388,8.
 320388\C,0,17.431812,7.36096,7.087109\H,0,16.685425,8.156558,7.31488\H
 ,0,18.085102,7.796073,6.305161\C,0,16.706309,6.138698,6.528134\H,0,16.
 229206,6.381238,5.55698\H,0,17.393345,5.297793,6.333882\C,0,15.634956,
 5.698971,7.52223\O,0,14.440169,5.815293,7.187827\O,0,16.023154,5.29106
 5,8.638416\O,0,12.630554,3.774847,7.16328\H,0,13.355265,4.438959,7.220
 284\H,0,12.00927,4.168882,6.556673\O,0,13.972038,10.463029,10.999691\H
 ,0,13.868988,9.52369,11.242255\H,0,13.078289,10.754501,10.820493\O,0,1
 1.64174,3.563158,9.734581\H,0,12.409237,3.187881,10.173319\H,0,11.9219
 55,3.618708,8.79544\O,0,15.202429,9.619788,8.583305\H,0,14.615438,8.85
 91,8.4982\H,0,14.829477,10.07934,9.352311\\Version=ES64L-G16RevA.03\HF
 =-76.4217261\RMSD=5.151e-09\Dipole=3.1174282,3.1876932,2.4555371\Quadr
 upole=64.6475966,-43.2373415,-21.4102551,114.3132109,124.2209972,87.27
 01822\PG=C01 [X(C10H21N1O6)]\\@


 BE CAREFUL NOT TO BECOME TOO GOOD OF A SONGBIRD OR 
 THEY'LL THROW YOU INTO A CAGE.

                                    -- SNOOPY TO WOODSTOCK
 Job cpu time:       0 days  4 hours 44 minutes 52.2 seconds.
 Elapsed time:       0 days  0 hours 11 minutes 56.1 seconds.
 File lengths (MBytes):  RWF=    336 Int=      0 D2E=      0 Chk=    140 Scr=      1
 Normal termination of Gaussian 16 at Mon Feb 20 10:22:41 2023.
